
                                 *****************
                                 * O   R   C   A *
                                 *****************

           --- An Ab Initio, DFT and Semiempirical electronic structure package ---

                  #######################################################
                  #                        -***-                        #
                  #          Department of theory and spectroscopy      #
                  #               Directorship: Frank Neese             #
                  #        Max Planck Institute fuer Kohlenforschung    #
                  #                Kaiser Wilhelm Platz 1               #
                  #                 D-45470 Muelheim/Ruhr               #
                  #                      Germany                        #
                  #                                                     #
                  #                  All rights reserved                #
                  #                        -***-                        #
                  #######################################################


                         Program Version 4.2.0 -  RELEASE  -


 With contributions from (in alphabetic order):
   Daniel Aravena         : Magnetic Suceptibility
   Michael Atanasov       : Ab Initio Ligand Field Theory (pilot matlab implementation)
   Alexander A. Auer      : GIAO ZORA, VPT2
   Ute Becker             : Parallelization
   Giovanni Bistoni       : ED, misc. LED, open-shell LED, HFLED
   Martin Brehm           : Molecular dynamics
   Dmytro Bykov           : SCF Hessian
   Vijay G. Chilkuri      : MRCI spin determinant printing, contributions to CSF-ICE
   Dipayan Datta          : RHF DLPNO-CCSD density
   Achintya Kumar Dutta   : EOM-CC, STEOM-CC
   Dmitry Ganyushin       : Spin-Orbit,Spin-Spin,Magnetic field MRCI
   Miquel Garcia          : C-PCM Hessian, Gaussian charge scheme
   Yang Guo               : DLPNO-NEVPT2, CIM, IAO-localization
   Andreas Hansen         : Spin unrestricted coupled pair/coupled cluster methods
   Benjamin Helmich-Paris : CASSCF linear response (MC-RPA)
   Lee Huntington         : MR-EOM, pCC
   Robert Izsak           : Overlap fitted RIJCOSX, COSX-SCS-MP3, EOM
   Christian Kollmar      : KDIIS, OOCD, Brueckner-CCSD(T), CCSD density
   Simone Kossmann        : Meta GGA functionals, TD-DFT gradient, OOMP2, MP2 Hessian
   Martin Krupicka        : AUTO-CI
   Lucas Lang             : DCDCAS
   Dagmar Lenk            : GEPOL surface, SMD
   Dimitrios Liakos       : Extrapolation schemes; Compound Job, initial MDCI parallelization
   Dimitrios Manganas     : Further ROCIS development; embedding schemes
   Dimitrios Pantazis     : SARC Basis sets
   Taras Petrenko         : DFT Hessian,TD-DFT gradient, ASA, ECA, R-Raman, ABS, FL, XAS/XES, NRVS
   Peter Pinski           : DLPNO-MP2, DLPNO-MP2 Gradient
   Christoph Reimann      : Effective Core Potentials
   Marius Retegan         : Local ZFS, SOC
   Christoph Riplinger    : Optimizer, TS searches, QM/MM, DLPNO-CCSD(T), (RO)-DLPNO pert. Triples
   Tobias Risthaus        : Range-separated hybrids, TD-DFT gradient, RPA, STAB
   Michael Roemelt        : Original ROCIS implementation
   Masaaki Saitow         : Open-shell DLPNO-CCSD energy and density
   Barbara Sandhoefer     : DKH picture change effects
   Avijit Sen             : IP-ROCIS
   Kantharuban Sivalingam : CASSCF convergence, NEVPT2, FIC-MRCI
   Bernardo de Souza      : ESD, SOC TD-DFT
   Georgi Stoychev        : AutoAux, RI-MP2 NMR
   Willem Van den Heuvel  : Paramagnetic NMR
   Boris Wezisla          : Elementary symmetry handling
   Frank Wennmohs         : Technical directorship


 We gratefully acknowledge several colleagues who have allowed us to
 interface, adapt or use parts of their codes:
   Stefan Grimme, W. Hujo, H. Kruse,             : VdW corrections, initial TS optimization,
                  C. Bannwarth                     DFT functionals, gCP, sTDA/sTD-DF
   Ed Valeev, F. Pavosevic, A. Kumar             : LibInt (2-el integral package), F12 methods
   Garnet Chan, S. Sharma, J. Yang, R. Olivares  : DMRG
   Ulf Ekstrom                                   : XCFun DFT Library
   Mihaly Kallay                                 : mrcc  (arbitrary order and MRCC methods)
   Andreas Klamt, Michael Diedenhofen            : otool_cosmo (COSMO solvation model)
   Jiri Pittner, Ondrej Demel                    : Mk-CCSD
   Frank Weinhold                                : gennbo (NPA and NBO analysis)
   Christopher J. Cramer and Donald G. Truhlar   : smd solvation model
   Lars Goerigk                                  : TD-DFT with DH, B97 family of functionals
   V. Asgeirsson, H. Jonsson                     : NEB implementation
   FAccTs GmbH                                   : IRC, NEB, NEB-TS, Multilevel, MM, QM/MM, CI optimization
   S Lehtola, MJT Oliveira, MAL Marques          : LibXC Library


 Your calculation uses the libint2 library for the computation of 2-el integrals
 For citations please refer to: http://libint.valeyev.net

 Your ORCA version has been built with support for libXC version: 4.2.3
 For citations please refer to: https://tddft.org/programs/libxc/

 This ORCA versions uses:
   CBLAS   interface :  Fast vector & matrix operations
   LAPACKE interface :  Fast linear algebra routines
   SCALAPACK package :  Parallel linear algebra routines


----- Orbital basis set information -----
Your calculation utilizes the basis: def2-SVP
   F. Weigend and R. Ahlrichs, Phys. Chem. Chem. Phys. 7, 3297 (2005).

----- AuxJ basis set information -----
Your calculation utilizes the auxiliary basis: def2/J
   F. Weigend, Phys. Chem. Chem. Phys. 8, 1057 (2006).

================================================================================
                                        WARNINGS
                       Please study these warnings very carefully!
================================================================================


WARNING: Geometry Optimization
  ===> : Switching off AutoStart
         For restart on a previous wavefunction, please use MOREAD

INFO   : the flag for use of LIBINT has been found!

================================================================================
                                       INPUT FILE
================================================================================
NAME = input.com
|  1> ! B3LYP/G Grid7 RIJCOSX def2/J GridX9 Printbasis   TightOpt  Freq  
|  2> *xyz  0 1
|  3>  F      0.00000000     0.00000000     0.00000000
|  4>  H      0.92614000     0.00000000     0.00000000
|  5>  F      1.72307000     0.00000000    -1.82971000
|  6>  H      0.79706000    -0.00010000    -1.83479000
|  7> *
|  8> %MaxCore  8000
|  9> %scf
| 10>    MaxIter 500 
| 11>    Convergence  VeryTight
| 12> end
| 13> %pal nprocs  1 
| 14> end
| 15> %method
| 16>   IntAcc 7.0
| 17> end
| 18> %geom
| 19>   Calc_Hess true
| 20>   Recalc_Hess 5 
| 21> end
| 22> %freq  Temp  273.15, 298.15
| 23> end
| 24> %basis 
| 25>    NewGTO   F
| 26>    S  6
| 27>        1            7001.71309000               0.00181962
| 28>        2            1051.36609000               0.01391608
| 29>        3             239.28569000               0.06840532
| 30>        4              67.39744530               0.23318576
| 31>        5              21.51995730               0.47126744
| 32>        6               7.40310130               0.35661855
| 33>    S  3
| 34>        1              20.84795280              -0.10850698
| 35>        2               4.80830834              -0.14645166
| 36>        3               1.34406986               1.12868858
| 37>    P  3
| 38>        1              20.84795280               0.07162872
| 39>        2               4.80830834               0.34591210
| 40>        3               1.34406986               0.72246996
| 41>    S  1
| 42>        1               0.35815139               1.00000000
| 43>    P  1
| 44>        1               0.35815139               1.00000000
| 45>    D  1
| 46>        1               1.60000000               1.00000000
| 47>    D  1
| 48>        1               0.40000000               1.00000000
| 49>    F  1
| 50>        1               1.85000000               1.00000000
| 51>    end
| 52>    NewGTO   H
| 53>    S  3
| 54>        1              18.73113696               0.03349460
| 55>        2               2.82539437               0.23472695
| 56>        3               0.64012169               0.81375733
| 57>    S  1
| 58>        1               0.16127776               1.00000000
| 59>    P  1
| 60>        1               1.10000000               1.00000000
| 61>    end
| 62> end
| 63> 
| 64>                          ****END OF INPUT****
================================================================================

                       *****************************
                       * Geometry Optimization Run *
                       *****************************

Geometry optimization settings:
Update method            Update   .... BFGS
Choice of coordinates    CoordSys .... Z-matrix Internals
Initial Hessian          InHess   .... Almoef's Model

Convergence Tolerances:
Energy Change            TolE     ....  1.0000e-06 Eh
Max. Gradient            TolMAXG  ....  1.0000e-04 Eh/bohr
RMS Gradient             TolRMSG  ....  3.0000e-05 Eh/bohr
Max. Displacement        TolMAXD  ....  1.0000e-03 bohr
RMS Displacement         TolRMSD  ....  6.0000e-04 bohr
Strict Convergence                ....  False
------------------------------------------------------------------------------
                        ORCA OPTIMIZATION COORDINATE SETUP
------------------------------------------------------------------------------

The optimization will be done in new redundant internal coordinates
Making redundant internal coordinates   ...  (new redundants) done
Evaluating the initial hessian          ...  (Is done on the fly) done
Evaluating the coordinates              ...  done
Calculating the B-matrix                .... done
Calculating the G-matrix                .... done
Diagonalizing the G-matrix              .... done
The first mode is                       ....   13
The number of degrees of freedom        ....    6

    -----------------------------------------------------------------
                    Redundant Internal Coordinates


    -----------------------------------------------------------------
         Definition                    Initial Value    d2E/dq (diagonal element)
    -----------------------------------------------------------------
      1. B(H   1,F   0)                  0.9261         0.000000   
      2. B(F   2,H   1)                  1.9957         0.000000   
      3. B(H   3,F   0)                  2.0004         0.000000   
      4. B(H   3,H   1)                  1.8393         0.000000   
      5. B(H   3,F   2)                  0.9260         0.000000   
      6. A(H   1,F   0,H   3)           66.5192         0.000000   
      7. A(F   0,H   1,F   2)          113.5355         0.000000   
      8. A(F   2,H   1,H   3)           27.5597         0.000000   
      9. A(F   0,H   1,H   3)           85.9758         0.000000   
     10. A(H   1,F   2,H   3)           66.7788         0.000000   
     11. A(F   0,H   3,H   1)           27.5050         0.000000   
     12. A(H   1,H   3,F   2)           85.6615         0.000000   
     13. A(F   0,H   3,F   2)          113.1665         0.000000   
     14. D(F   2,H   1,F   0,H   3)      0.0031         0.000000   
     15. D(H   3,F   2,H   1,F   0)     -0.0067         0.000000   
     16. D(F   2,H   3,F   0,H   1)     -0.0067         0.000000   
     17. D(F   0,H   3,H   1,F   2)   -179.9938         0.000000   
     18. D(F   0,H   3,F   2,H   1)      0.0031         0.000000   
     19. D(F   2,H   3,H   1,F   0)    179.9938         0.000000   
    -----------------------------------------------------------------

Number of atoms                         .... 4
Number of degrees of freedom            .... 19

         *************************************************************
         *                GEOMETRY OPTIMIZATION CYCLE   1            *
         *************************************************************
---------------------------------
CARTESIAN COORDINATES (ANGSTROEM)
---------------------------------
  F      0.000000    0.000000    0.000000
  H      0.926140    0.000000    0.000000
  F      1.723070    0.000000   -1.829710
  H      0.797060   -0.000100   -1.834790

----------------------------
CARTESIAN COORDINATES (A.U.)
----------------------------
  NO LB      ZA    FRAG     MASS         X           Y           Z
   0 F     9.0000    0    18.998    0.000000    0.000000    0.000000
   1 H     1.0000    0     1.008    1.750151    0.000000    0.000000
   2 F     9.0000    0    18.998    3.256130    0.000000   -3.457651
   3 H     1.0000    0     1.008    1.506225   -0.000189   -3.467251

--------------------------------
INTERNAL COORDINATES (ANGSTROEM)
--------------------------------
 F      0   0   0     0.000000000000     0.00000000     0.00000000
 H      1   0   0     0.926140000000     0.00000000     0.00000000
 F      2   1   0     1.995729467889   113.53552838     0.00000000
 H      3   2   1     0.926023939485    66.77878764     0.00000000

---------------------------
INTERNAL COORDINATES (A.U.)
---------------------------
 F      0   0   0     0.000000000000     0.00000000     0.00000000
 H      1   0   0     1.750150961670     0.00000000     0.00000000
 F      2   1   0     3.771382131706   113.53552838     0.00000000
 H      3   2   1     1.749931639082    66.77878764     0.00000000

---------------------
BASIS SET INFORMATION
---------------------
There are 2 groups of distinct atoms

 Group   1 Type F   : 10s4p2d1f contracted to 3s2p2d1f pattern {631/31/11/1}
 Group   2 Type H   : 4s1p contracted to 2s1p pattern {31/1}

Atom   0F    basis set group =>   1
Atom   1H    basis set group =>   2
Atom   2F    basis set group =>   1
Atom   3H    basis set group =>   2

-------------------------
BASIS SET IN INPUT FORMAT
-------------------------

 # Basis set for element : H 
 NewGTO H 
 S 3 
   1      18.7311369600      0.0334946000
   2       2.8253943700      0.2347269502
   3       0.6401216900      0.8137573307
 S 1 
   1       0.1612777600      1.0000000000
 P 1 
   1       1.1000000000      1.0000000000
  end;

 # Basis set for element : F 
 NewGTO F 
 S 6 
   1    7001.7130900000      0.0018196200
   2    1051.3660900000      0.0139160800
   3     239.2856900000      0.0684053199
   4      67.3974453000      0.2331857596
   5      21.5199573000      0.4712674391
   6       7.4031013000      0.3566185493
 S 3 
   1      20.8479528000     -0.1085069803
   2       4.8083083400     -0.1464516604
   3       1.3440698600      1.1286885835
 P 3 
   1      20.8479528000      0.0716287200
   2       4.8083083400      0.3459121001
   3       1.3440698600      0.7224699603
 S 1 
   1       0.3581513900      1.0000000000
 P 1 
   1       0.3581513900      1.0000000000
 D 1 
   1       1.6000000000      1.0000000000
 D 1 
   1       0.4000000000      1.0000000000
 F 1 
   1       1.8500000000      1.0000000000
  end;

---------------------------------
AUXILIARY/J BASIS SET INFORMATION
---------------------------------
There are 2 groups of distinct atoms

 Group   1 Type F   : 12s5p4d2f1g contracted to 6s4p3d1f1g pattern {711111/2111/211/2/1}
 Group   2 Type H   : 5s2p1d contracted to 3s1p1d pattern {311/2/1}

Atom   0F    basis set group =>   1
Atom   1H    basis set group =>   2
Atom   2F    basis set group =>   1
Atom   3H    basis set group =>   2

-------------------------------------
AUXILIARY/J BASIS SET IN INPUT FORMAT
-------------------------------------

 # Auxiliary/J basis set for element : H 
 NewAuxJGTO H 
 S 3 
   1      15.6752927000      0.1007184237
   2       3.6063578000      0.3404257499
   3       1.2080016000      0.6491996172
 S 1 
   1       0.4726794000      1.0000000000
 S 1 
   1       0.2018100000      1.0000000000
 P 2 
   1       2.0281365000      0.5596620919
   2       0.5358730000      0.5596620919
 D 1 
   1       2.2165124000      1.0000000000
  end;

 # Auxiliary/J basis set for element : F 
 NewAuxJGTO F 
 S 7 
   1    3514.9201549000      0.0176189594
   2    1231.2458815000      0.0358663858
   3     454.1367336000      0.1239867649
   4     175.8376258000      0.2758620517
   5      71.2081775000      0.4252764982
   6      30.0316883000      0.2651963387
   7      13.1259023000     -0.0078514564
 S 1 
   1       5.9126861000     -1.0000000000
 S 1 
   1       2.7284431000      1.0000000000
 S 1 
   1       1.2813993000      1.0000000000
 S 1 
   1       0.6082793000      1.0000000000
 S 1 
   1       0.2897894000      1.0000000000
 P 2 
   1      49.3740409000     -0.8404235528
   2      13.4874956000     -0.2331250081
 P 1 
   1       3.9664900000      1.0000000000
 P 1 
   1       1.2226629000     -1.0000000000
 P 1 
   1       0.3830317000      1.0000000000
 D 2 
   1      29.9719140000     -0.2160273306
   2       6.7860915000     -0.8915140390
 D 1 
   1       1.8137313000     -1.0000000000
 D 1 
   1       0.5157840000     -1.0000000000
 F 2 
   1       2.8301877000      0.5762078303
   2       0.9155962000      0.5762078303
 G 1 
   1       1.6097500000     -1.0000000000
  end;

------------------------------------------------------------------------------
                           ORCA GTO INTEGRAL CALCULATION
                           -- RI-GTO INTEGRALS CHOSEN --
------------------------------------------------------------------------------

                         BASIS SET STATISTICS AND STARTUP INFO

Gaussian basis set:
 # of primitive gaussian shells          ...   44
 # of primitive gaussian functions       ...   92
 # of contracted shells                  ...   22
 # of contracted basis functions         ...   62
 Highest angular momentum                ...    3
 Maximum contraction depth               ...    6
Auxiliary gaussian basis set:
 # of primitive gaussian shells          ...   64
 # of primitive gaussian functions       ...  172
 # of contracted shells                  ...   40
 # of contracted aux-basis functions     ...  120
 Highest angular momentum                ...    4
 Maximum contraction depth               ...    7
Ratio of auxiliary to basis functions    ...  1.94
Integral package used                  ... LIBINT
 One Electron integrals                  ... done
 Ordering auxiliary basis shells         ... done
 Integral threshhold             Thresh  ...  1.000e-12
 Primitive cut-off               TCut    ...  1.000e-14
 Pre-screening matrix                    ... done
 Shell pair data                         ... 
 Ordering of the shell pairs             ... done (   0.000 sec) 250 of 253 pairs
 Determination of significant pairs      ... done (   0.000 sec)
 Creation of shell pair data             ... done (   0.000 sec)
 Storage of shell pair data              ... done (   0.001 sec)
 Shell pair data done in (   0.001 sec)
 Computing two index integrals           ... done
 Cholesky decomposition of the V-matrix  ... done


Timings:
 Total evaluation time                   ...   0.145 sec (  0.002 min)
 One electron matrix time                ...   0.007 sec (  0.000 min) =  4.8%
 Schwartz matrix evaluation time         ...   0.101 sec (  0.002 min) = 69.5%
 Two index repulsion integral time       ...   0.001 sec (  0.000 min) =  0.6%
 Cholesky decomposition of V             ...   0.001 sec (  0.000 min) =  0.5%
 Three index repulsion integral time     ...   0.000 sec (  0.000 min) =  0.0%

-------------------------------------------------------------------------------
                                 ORCA SCF
-------------------------------------------------------------------------------

------------
SCF SETTINGS
------------
Hamiltonian:
 Density Functional     Method          .... DFT(GTOs)
 Exchange Functional    Exchange        .... B88
   X-Alpha parameter    XAlpha          ....  0.666667
   Becke's b parameter  XBeta           ....  0.004200
 Correlation Functional Correlation     .... LYP
 LDA part of GGA corr.  LDAOpt          .... VWN-3
 Gradients option       PostSCFGGA      .... off
 Hybrid DFT is turned on
   Fraction HF Exchange ScalHFX         ....  0.200000
   Scaling of DF-GGA-X  ScalDFX         ....  0.720000
   Scaling of DF-GGA-C  ScalDFC         ....  0.810000
   Scaling of DF-LDA-C  ScalLDAC        ....  1.000000
   Perturbative correction              ....  0.000000
   Density functional embedding theory  .... OFF
   NL short-range parameter             ....  4.800000
 RI-approximation to the Coulomb term is turned on
   Number of auxiliary basis functions  .... 120
   RIJ-COSX (HFX calculated with COS-X)).... on


General Settings:
 Integral files         IntName         .... input
 Hartree-Fock type      HFTyp           .... RHF
 Total Charge           Charge          ....    0
 Multiplicity           Mult            ....    1
 Number of Electrons    NEL             ....   20
 Basis Dimension        Dim             ....   62
 Nuclear Repulsion      ENuc            ....     32.3947733018 Eh

Convergence Acceleration:
 DIIS                   CNVDIIS         .... on
   Start iteration      DIISMaxIt       ....    12
   Startup error        DIISStart       ....  0.200000
   # of expansion vecs  DIISMaxEq       ....     5
   Bias factor          DIISBfac        ....   1.050
   Max. coefficient     DIISMaxC        ....  10.000
 Newton-Raphson         CNVNR           .... off
 SOSCF                  CNVSOSCF        .... on
   Start iteration      SOSCFMaxIt      ....   150
   Startup grad/error   SOSCFStart      ....  0.003300
 Level Shifting         CNVShift        .... on
   Level shift para.    LevelShift      ....    0.2500
   Turn off err/grad.   ShiftErr        ....    0.0010
 Zerner damping         CNVZerner       .... off
 Static damping         CNVDamp         .... on
   Fraction old density DampFac         ....    0.7000
   Max. Damping (<1)    DampMax         ....    0.9800
   Min. Damping (>=0)   DampMin         ....    0.0000
   Turn off err/grad.   DampErr         ....    0.1000
 Fernandez-Rico         CNVRico         .... off

SCF Procedure:
 Maximum # iterations   MaxIter         ....   500
 SCF integral mode      SCFMode         .... Direct
   Integral package                     .... LIBINT
 Reset frequency        DirectResetFreq ....    20
 Integral Threshold     Thresh          ....  1.000e-12 Eh
 Primitive CutOff       TCut            ....  1.000e-14 Eh

Convergence Tolerance:
 Convergence Check Mode ConvCheckMode   .... Total+1el-Energy
 Convergence forced     ConvForced      .... 0
 Energy Change          TolE            ....  1.000e-09 Eh
 1-El. energy change                    ....  1.000e-06 Eh
 Orbital Gradient       TolG            ....  2.000e-06
 Orbital Rotation angle TolX            ....  2.000e-06
 DIIS Error             TolErr          ....  1.000e-08


Diagonalization of the overlap matrix:
Smallest eigenvalue                        ... 3.466e-02
Time for diagonalization                   ...    0.001 sec
Threshold for overlap eigenvalues          ... 1.000e-08
Number of eigenvalues below threshold      ... 0
Time for construction of square roots      ...    0.001 sec
Total time needed                          ...    0.002 sec

-------------------
DFT GRID GENERATION
-------------------

General Integration Accuracy     IntAcc      ...  7.000
Radial Grid Type                 RadialGrid  ... Gauss-Chebyshev
Angular Grid (max. acc.)         AngularGrid ... Lebedev-770
Angular grid pruning method      GridPruning ... 3 (G Style)
Weight generation scheme         WeightScheme... Becke
Basis function cutoff            BFCut       ...    1.0000e-12
Integration weight cutoff        WCut        ...    1.0000e-14
Grids for H and He will be reduced by one unit

# of grid points (after initial pruning)     ... 120436 (   0.0 sec)
# of grid points (after weights+screening)   ... 118517 (   0.0 sec)
nearest neighbour list constructed           ...    0.0 sec
Grid point re-assignment to atoms done       ...    0.0 sec
Grid point division into batches done        ...    3.2 sec
Reduced shell lists constructed in    3.5 sec

Total number of grid points                  ...   118517
Total number of batches                      ...     1854
Average number of points per batch           ...       63
Average number of grid points per atom       ...    29629
Average number of shells per batch           ...    15.63 (71.06%)
Average number of basis functions per batch  ...    43.52 (70.20%)
Average number of large shells per batch     ...    13.16 (84.17%)
Average number of large basis fcns per batch ...    35.65 (81.92%)
Maximum spatial batch extension              ...  22.29, 19.66, 16.72 au
Average spatial batch extension              ...   1.68,  1.83,  1.75 au

Time for grid setup =    3.576 sec

------------------------------
INITIAL GUESS: MODEL POTENTIAL
------------------------------
Loading Hartree-Fock densities                     ... done
Calculating cut-offs                               ... done
Setting up the integral package                    ... done
Initializing the effective Hamiltonian             ... done
Starting the Coulomb interaction                   ... done (   0.0 sec)
Reading the grid                                   ... done
Mapping shells                                     ... done
Starting the XC term evaluation                    ... done (   0.3 sec)
  promolecular density results
     # of electrons  =     19.999020816
     EX              =    -20.682887274
     EC              =     -0.724683275
     EX+EC           =    -21.407570549
Transforming the Hamiltonian                       ... done (   0.0 sec)
Diagonalizing the Hamiltonian                      ... done (   0.0 sec)
Back transforming the eigenvectors                 ... done (   0.0 sec)
Now organizing SCF variables                       ... done
                      ------------------
                      INITIAL GUESS DONE (   4.0 sec)
                      ------------------
--------------------
COSX GRID GENERATION
--------------------

General Integration Accuracy     IntAcc      ...  4.010
Radial Grid Type                 RadialGrid  ... Gauss-Chebyshev
Angular Grid (max. acc.)         AngularGrid ... Lebedev-50
Angular grid pruning method      GridPruning ... 3 (G Style)
Weight generation scheme         WeightScheme... Becke
Basis function cutoff            BFCut       ...    1.0000e-12
Integration weight cutoff        WCut        ...    1.0000e-14
Grids for H and He will be reduced by one unit

# of grid points (after initial pruning)     ...   2768 (   0.0 sec)
# of grid points (after weights+screening)   ...   2698 (   0.0 sec)
nearest neighbour list constructed           ...    0.0 sec
Grid point re-assignment to atoms done       ...    0.0 sec
Grid point division into batches done        ...    0.0 sec
Reduced shell lists constructed in    0.0 sec

Total number of grid points                  ...     2698
Total number of batches                      ...       44
Average number of points per batch           ...       61
Average number of grid points per atom       ...      674
Average number of shells per batch           ...    19.40 (88.18%)
Average number of basis functions per batch  ...    55.27 (89.14%)
Average number of large shells per batch     ...    17.09 (88.09%)
Average number of large basis fcns per batch ...    47.44 (85.85%)
Maximum spatial batch extension              ...  16.98, 28.50, 16.57 au
Average spatial batch extension              ...   5.02,  7.46,  5.79 au

Overlap Fitting                  UseSFitting ... on
Constructing numerical overlap ... done (      0.0 sec)
Inverting numerical overlap    ... done (      0.0 sec)
Obtaining analytic overlap     ... done (      0.0 sec)
Final contraction and storage  ... done (      0.0 sec)


General Integration Accuracy     IntAcc      ...  4.670
Radial Grid Type                 RadialGrid  ... Gauss-Chebyshev
Angular Grid (max. acc.)         AngularGrid ... Lebedev-194
Angular grid pruning method      GridPruning ... 3 (G Style)
Weight generation scheme         WeightScheme... Becke
Basis function cutoff            BFCut       ...    1.0000e-12
Integration weight cutoff        WCut        ...    1.0000e-14
Grids for H and He will be reduced by one unit

# of grid points (after initial pruning)     ...  11056 (   0.0 sec)
# of grid points (after weights+screening)   ...  10901 (   0.0 sec)
nearest neighbour list constructed           ...    0.0 sec
Grid point re-assignment to atoms done       ...    0.0 sec
Grid point division into batches done        ...    0.0 sec
Reduced shell lists constructed in    0.0 sec

Total number of grid points                  ...    10901
Total number of batches                      ...      172
Average number of points per batch           ...       63
Average number of grid points per atom       ...     2725
Average number of shells per batch           ...    17.34 (78.80%)
Average number of basis functions per batch  ...    48.65 (78.47%)
Average number of large shells per batch     ...    14.96 (86.30%)
Average number of large basis fcns per batch ...    41.02 (84.31%)
Maximum spatial batch extension              ...  17.05, 18.84, 18.16 au
Average spatial batch extension              ...   3.51,  4.22,  3.72 au

Overlap Fitting                  UseSFitting ... on
Constructing numerical overlap ... done (      0.0 sec)
Inverting numerical overlap    ... done (      0.0 sec)
Obtaining analytic overlap     ... done (      0.0 sec)
Final contraction and storage  ... done (      0.0 sec)


General Integration Accuracy     IntAcc      ...  4.670
Radial Grid Type                 RadialGrid  ... Gauss-Chebyshev
Angular Grid (max. acc.)         AngularGrid ... Lebedev-302
Angular grid pruning method      GridPruning ... 3 (G Style)
Weight generation scheme         WeightScheme... Becke
Basis function cutoff            BFCut       ...    1.0000e-12
Integration weight cutoff        WCut        ...    1.0000e-14
Grids for H and He will be reduced by one unit

# of grid points (after initial pruning)     ...  19332 (   0.0 sec)
# of grid points (after weights+screening)   ...  19046 (   0.0 sec)
nearest neighbour list constructed           ...    0.0 sec
Grid point re-assignment to atoms done       ...    0.0 sec
Grid point division into batches done        ...    0.1 sec
Reduced shell lists constructed in    0.1 sec

Total number of grid points                  ...    19046
Total number of batches                      ...      298
Average number of points per batch           ...       63
Average number of grid points per atom       ...     4762
Average number of shells per batch           ...    16.73 (76.03%)
Average number of basis functions per batch  ...    46.91 (75.66%)
Average number of large shells per batch     ...    14.22 (85.02%)
Average number of large basis fcns per batch ...    38.77 (82.65%)
Maximum spatial batch extension              ...  16.27, 19.94, 15.06 au
Average spatial batch extension              ...   2.91,  3.42,  3.10 au

Overlap Fitting                  UseSFitting ... on
Constructing numerical overlap ... done (      0.0 sec)
Inverting numerical overlap    ... done (      0.0 sec)
Obtaining analytic overlap     ... done (      0.0 sec)
Final contraction and storage  ... done (      0.0 sec)

Time for X-Grid setup             =    0.300 sec
--------------
SCF ITERATIONS
--------------
ITER       Energy         Delta-E        Max-DP      RMS-DP      [F,P]     Damp
               ***  Starting incremental Fock matrix formation  ***
  0   -200.8081865716   0.000000000000 0.05246397  0.00270355  0.2067640 0.7000
  1   -200.8394350186  -0.031248447047 0.02997992  0.00147599  0.0941825 0.7000
                               ***Turning on DIIS***
  2   -200.8508974729  -0.011462454269 0.03844871  0.00175179  0.0306869 0.0000
  3   -200.8706268448  -0.019729371867 0.01827418  0.00099369  0.0464593 0.0000
  4   -200.8738682107  -0.003241365934 0.00232800  0.00013110  0.0048294 0.0000
                      *** Initiating the SOSCF procedure ***
                           *** Shutting down DIIS ***
                      *** Re-Reading the Fockian *** 
                      *** Removing any level shift *** 
ITER      Energy       Delta-E        Grad      Rot      Max-DP    RMS-DP
  5   -200.87391018  -0.0000419732  0.000464  0.000464  0.000853  0.000044
               *** Restarting incremental Fock matrix formation ***
  6   -200.87370885   0.0002013306  0.000149  0.000292  0.000459  0.000021
  7   -200.87370902  -0.0000001679  0.000100  0.000043  0.000116  0.000006
  8   -200.87370907  -0.0000000491  0.000043  0.000035  0.000064  0.000003
  9   -200.87370908  -0.0000000089  0.000006  0.000004  0.000003  0.000000
                 **** Energy Check signals convergence ****
              ***Rediagonalizing the Fockian in SOSCF/NRSCF***

               *****************************************************
               *                     SUCCESS                       *
               *           SCF CONVERGED AFTER  10 CYCLES          *
               *****************************************************

Old exchange energy                            =     -4.178834351 Eh
New exchange energy                            =     -4.178876149 Eh
Exchange energy change after final integration =     -0.000041798 Eh
Total energy after final integration           =   -200.873750878 Eh
Final COS-X integration done in                =     1.441 sec

----------------
TOTAL SCF ENERGY
----------------

Total Energy       :         -200.87375088 Eh           -5466.05265 eV

Components:
Nuclear Repulsion  :           32.39477330 Eh             881.50660 eV
Electronic Energy  :         -233.26852418 Eh           -6347.55925 eV
One Electron Energy:         -345.12792844 Eh           -9391.40838 eV
Two Electron Energy:          111.85940426 Eh            3043.84914 eV

Virial components:
Potential Energy   :         -400.89017301 Eh          -10908.77620 eV
Kinetic Energy     :          200.01642213 Eh            5442.72355 eV
Virial Ratio       :            2.00428629


DFT components:
N(Alpha)           :        9.999999990193 electrons
N(Beta)            :        9.999999990193 electrons
N(Total)           :       19.999999980386 electrons
E(X)               :      -16.627197262896 Eh       
E(C)               :       -0.935843249516 Eh       
E(XC)              :      -17.563040512412 Eh       
DFET-embed. en.    :        0.000000000000 Eh       

---------------
SCF CONVERGENCE
---------------

  Last Energy change         ...   -3.8744e-10  Tolerance :   1.0000e-09
  Last MAX-Density change    ...    2.0400e-15  Tolerance :   1.0000e-08
  Last RMS-Density change    ...    5.4272e-17  Tolerance :   1.0000e-09
  Last Orbital Gradient      ...    1.7103e-06  Tolerance :   2.0000e-06
  Last Orbital Rotation      ...    1.0299e-06  Tolerance :   2.0000e-06

             **** THE GBW FILE WAS UPDATED (input.gbw) ****
             **** DENSITY FILE WAS UPDATED (input.scfp) ****
             **** ENERGY FILE WAS UPDATED (input.en.tmp) ****
             **** THE GBW FILE WAS UPDATED (input.gbw) ****
             **** DENSITY FILE WAS UPDATED (input.scfp) ****
----------------
ORBITAL ENERGIES
----------------

  NO   OCC          E(Eh)            E(eV) 
   0   2.0000     -24.678409      -671.5336 
   1   2.0000     -24.677885      -671.5194 
   2   2.0000      -1.197251       -32.5789 
   3   2.0000      -1.178962       -32.0812 
   4   2.0000      -0.544178       -14.8078 
   5   2.0000      -0.533189       -14.5088 
   6   2.0000      -0.414469       -11.2783 
   7   2.0000      -0.403484       -10.9794 
   8   2.0000      -0.393418       -10.7054 
   9   2.0000      -0.388341       -10.5673 
  10   0.0000       0.071757         1.9526 
  11   0.0000       0.121859         3.3160 
  12   0.0000       0.635735        17.2992 
  13   0.0000       0.639700        17.4071 
  14   0.0000       0.784313        21.3422 
  15   0.0000       0.812658        22.1135 
  16   0.0000       0.912592        24.8329 
  17   0.0000       0.940863        25.6022 
  18   0.0000       0.967279        26.3210 
  19   0.0000       0.992152        26.9978 
  20   0.0000       1.041860        28.3505 
  21   0.0000       1.062891        28.9227 
  22   0.0000       1.129885        30.7457 
  23   0.0000       1.159208        31.5437 
  24   0.0000       1.161114        31.5955 
  25   0.0000       1.197717        32.5915 
  26   0.0000       1.206599        32.8332 
  27   0.0000       1.330040        36.1922 
  28   0.0000       1.513620        41.1877 
  29   0.0000       1.607631        43.7459 
  30   0.0000       2.183583        59.4183 
  31   0.0000       2.344746        63.8038 
  32   0.0000       2.446712        66.5784 
  33   0.0000       2.517404        68.5020 
  34   0.0000       2.569914        69.9309 
  35   0.0000       2.795088        76.0582 
  36   0.0000       2.977278        81.0159 
  37   0.0000       2.982433        81.1561 
  38   0.0000       4.082453       111.0892 
  39   0.0000       4.095720       111.4502 
  40   0.0000       4.122877       112.1892 
  41   0.0000       4.144320       112.7727 
  42   0.0000       4.158015       113.1453 
  43   0.0000       4.194479       114.1376 
  44   0.0000       4.226332       115.0043 
  45   0.0000       4.334699       117.9532 
  46   0.0000       4.780452       130.0827 
  47   0.0000       4.797820       130.5553 
  48   0.0000       6.621399       180.1774 
  49   0.0000       6.622062       180.1955 
  50   0.0000       6.622105       180.1966 
  51   0.0000       6.624964       180.2744 
  52   0.0000       6.655246       181.0985 
  53   0.0000       6.655566       181.1072 
  54   0.0000       6.655757       181.1124 
  55   0.0000       6.656653       181.1367 
  56   0.0000       6.948078       189.0668 
  57   0.0000       6.971488       189.7038 
  58   0.0000       6.976150       189.8307 
  59   0.0000       7.017659       190.9602 
  60   0.0000       7.480399       203.5520 
  61   0.0000       7.604123       206.9187 

                    ********************************
                    * MULLIKEN POPULATION ANALYSIS *
                    ********************************

-----------------------
MULLIKEN ATOMIC CHARGES
-----------------------
   0 F :   -0.368993
   1 H :    0.368672
   2 F :   -0.368414
   3 H :    0.368735
Sum of atomic charges:   -0.0000000

--------------------------------
MULLIKEN REDUCED ORBITAL CHARGES
--------------------------------
  0 F s       :     3.914508  s :     3.914508
      pz      :     1.947171  p :     5.441717
      px      :     1.507087
      py      :     1.987460
      dz2     :     0.001515  d :     0.012234
      dxz     :     0.004075
      dyz     :     0.000344
      dx2y2   :     0.003710
      dxy     :     0.002590
      f0      :     0.000017  f :     0.000533
      f+1     :     0.000145
      f-1     :     0.000002
      f+2     :     0.000042
      f-2     :     0.000000
      f+3     :     0.000264
      f-3     :     0.000062
  1 H s       :     0.581915  s :     0.581915
      pz      :     0.010121  p :     0.049413
      px      :     0.029752
      py      :     0.009540
  2 F s       :     3.914491  s :     3.914491
      pz      :     1.946618  p :     5.441152
      px      :     1.507077
      py      :     1.987458
      dz2     :     0.001511  d :     0.012238
      dxz     :     0.004074
      dyz     :     0.000343
      dx2y2   :     0.003717
      dxy     :     0.002594
      f0      :     0.000017  f :     0.000533
      f+1     :     0.000145
      f-1     :     0.000002
      f+2     :     0.000042
      f-2     :     0.000000
      f+3     :     0.000264
      f-3     :     0.000062
  3 H s       :     0.581849  s :     0.581849
      pz      :     0.010112  p :     0.049417
      px      :     0.029762
      py      :     0.009543


                     *******************************
                     * LOEWDIN POPULATION ANALYSIS *
                     *******************************

----------------------
LOEWDIN ATOMIC CHARGES
----------------------
   0 F :   -0.192901
   1 H :    0.192506
   2 F :   -0.192353
   3 H :    0.192747

-------------------------------
LOEWDIN REDUCED ORBITAL CHARGES
-------------------------------
  0 F s       :     3.743395  s :     3.743395
      pz      :     1.927052  p :     5.421798
      px      :     1.529949
      py      :     1.964797
      dz2     :     0.006588  d :     0.026790
      dxz     :     0.004510
      dyz     :     0.000384
      dx2y2   :     0.013992
      dxy     :     0.001317
      f0      :     0.000001  f :     0.000918
      f+1     :     0.000339
      f-1     :     0.000000
      f+2     :     0.000002
      f-2     :     0.000000
      f+3     :     0.000574
      f-3     :     0.000000
  1 H s       :     0.647286  s :     0.647286
      pz      :     0.034215  p :     0.160208
      px      :     0.092491
      py      :     0.033501
  2 F s       :     3.743313  s :     3.743313
      pz      :     1.926577  p :     5.421286
      px      :     1.529927
      py      :     1.964781
      dz2     :     0.006609  d :     0.026835
      dxz     :     0.004524
      dyz     :     0.000383
      dx2y2   :     0.014000
      dxy     :     0.001319
      f0      :     0.000001  f :     0.000919
      f+1     :     0.000339
      f-1     :     0.000000
      f+2     :     0.000002
      f-2     :     0.000000
      f+3     :     0.000575
      f-3     :     0.000000
  3 H s       :     0.647096  s :     0.647096
      pz      :     0.034197  p :     0.160156
      px      :     0.092444
      py      :     0.033516


                      *****************************
                      * MAYER POPULATION ANALYSIS *
                      *****************************

  NA   - Mulliken gross atomic population
  ZA   - Total nuclear charge
  QA   - Mulliken gross atomic charge
  VA   - Mayer's total valence
  BVA  - Mayer's bonded valence
  FA   - Mayer's free valence

  ATOM       NA         ZA         QA         VA         BVA        FA
  0 F      9.3690     9.0000    -0.3690     0.9250     0.9250    -0.0000
  1 H      0.6313     1.0000     0.3687     0.8998     0.8998    -0.0000
  2 F      9.3684     9.0000    -0.3684     0.9260     0.9260    -0.0000
  3 H      0.6313     1.0000     0.3687     0.8996     0.8996    -0.0000

  Mayer bond orders larger than 0.100000
B(  0-F ,  1-H ) :   0.8276 B(  2-F ,  3-H ) :   0.8280 

-------
TIMINGS
-------

Total SCF time: 0 days 0 hours 0 min 17 sec 

Total time                  ....      17.147 sec
Sum of individual times     ....      17.014 sec  ( 99.2%)

Fock matrix formation       ....      12.705 sec  ( 74.1%)
  Split-RI-J                ....       0.900 sec  (  7.1% of F)
  Chain of spheres X        ....       7.280 sec  ( 57.3% of F)
  COS-X 1 center corr.      ....       0.000 sec  (  0.0% of F)
  XC integration            ....       4.537 sec  ( 35.7% of F)
    Basis function eval.    ....       1.837 sec  ( 40.5% of XC)
    Density eval.           ....       0.746 sec  ( 16.4% of XC)
    XC-Functional eval.     ....       0.815 sec  ( 18.0% of XC)
    XC-Potential eval.      ....       0.866 sec  ( 19.1% of XC)
Diagonalization             ....       0.003 sec  (  0.0%)
Density matrix formation    ....       0.000 sec  (  0.0%)
Population analysis         ....       0.001 sec  (  0.0%)
Initial guess               ....       0.427 sec  (  2.5%)
Orbital Transformation      ....       0.000 sec  (  0.0%)
Orbital Orthonormalization  ....       0.000 sec  (  0.0%)
DIIS solution               ....       0.001 sec  (  0.0%)
SOSCF solution              ....       0.002 sec  (  0.0%)
Grid generation             ....       3.876 sec  ( 22.6%)

-------------------------   --------------------
FINAL SINGLE POINT ENERGY      -200.873750877772
-------------------------   --------------------

------------------------------------------------------------------------------
                         ORCA SCF GRADIENT CALCULATION
------------------------------------------------------------------------------

Gradient of the Kohn-Sham DFT energy:
Kohn-Sham wavefunction type      ... RKS
Hartree-Fock exchange scaling    ...    0.200
Number of operators              ...    1
Number of atoms                  ...    4
Basis set dimensions             ...   62
Integral neglect threshold       ... 1.0e-12
Integral primitive cutoff        ... 1.0e-14

Nuclear repulsion gradient       ... done
One Electron Gradient            ... done
Pre-screening matrix             ... done
RI-J gradient                    ... done
COSX-gradient                    ... done
Exchange-correlation gradient    ... done

------------------
CARTESIAN GRADIENT
------------------

   1   F   :    0.000789378    0.000001037    0.000145883
   2   H   :   -0.000818028   -0.000000943    0.000288427
   3   F   :   -0.000893605    0.000000902   -0.000140414
   4   H   :    0.000922133   -0.000000864   -0.000293477

Difference to translation invariance:
           :   -0.0000001227    0.0000001317    0.0000004190

Norm of the cartesian gradient     ...    0.0017752370
RMS gradient                       ...    0.0005124668
MAX gradient                       ...    0.0009221329

-------
TIMINGS
-------

Total SCF gradient time            ...        3.557 sec

One electron gradient       ....       0.009 sec  (  0.2%)
Prescreening matrices       ....       0.053 sec  (  1.5%)
RI-J Coulomb gradient       ....       0.132 sec  (  3.7%)
COSX gradient               ....       1.507 sec  ( 42.3%)
XC gradient                 ....       1.579 sec  ( 44.4%)

-------------------------------------------------------------------------------
                               ORCA SCF HESSIAN
-------------------------------------------------------------------------------

Hessian of the Kohn-Sham DFT energy:
Kohn-Sham wavefunction type                      ... RKS
Hartree-Fock exchange scaling                    ...    0.200
Number of operators                              ...    1
Number of atoms                                  ...    4
Basis set dimensions                             ...   62
Integral neglect threshold                       ... 1.0e-12
Integral primitive cutoff                        ... 1.0e-14

Setting up DFT Hessian calculations              ... 
Electron density on the grid                     ... found on disk
Building xc-kernel on the grid                   ... done   (      0.2 sec)
                                                     done   (      0.2 sec)

Nuclear repulsion Hessian                        ... done   (      0.0 sec)

----------------------------------------------
Forming right-hand sides of CP-SCF equations     ...
----------------------------------------------
One electron integral derivatives                ... done   (      0.1 sec)
Transforming the overlap derivative matrices     ... done   (      0.0 sec)
Making the Q(x) pseudodensities                  ... done   (      0.0 sec)
Adding the E*S(x)*S(y) terms to the Hessian      ... done   (      0.0 sec)
Calculating energy weighted overlap derivatives  ... done   (      0.0 sec)
Two electron integral derivatives (RI)           ... done   (      1.1 sec)
Exchange-correlation integral derivatives        ... done   (      7.9 sec)
tr(F(y)Q(x)) contribution to the Hessian         ... done   (      0.0 sec)
Response fock operator R(S(x)) (RIJCOSX)         ... done   (      2.2 sec)
XC Response fock operator R(S(x))                ... done   (      2.1 sec)
tr(F(y)S(x)) contribution to the Hessian         ... done   (      0.0 sec)
Transforming and finalizing RHSs                 ... done   (      0.0 sec)

----------------------------------------------
Solving the CP-SCF equations (RIJCOSX)           ...
----------------------------------------------
     CP-SCF ITERATION   0: 
     CP-SCF ITERATION   1:      0.000353654741
     CP-SCF ITERATION   2:      0.000011131788
     CP-SCF ITERATION   3:      0.000001266265
     CP-SCF ITERATION   4:      0.000000011252
     CP-SCF ITERATION   5:      0.000000000742

                                                 ... done   (     17.3 sec)
Forming perturbed density Hessian contributions  ... done   (      0.0 sec)
2nd integral derivative contribs (RI)            ... done   (      4.1 sec)
Exchange-correlation Hessian                     ... done   (      9.4 sec)
Dipol derivatives                                ... done   (      0.1 sec)

Total SCF Hessian time: 0 days 0 hours 0 min 44 sec 

Writing the Hessian file to the disk             ... done


Maximum memory used throughout the entire calculation: 181.6 MB

-----------------------
VIBRATIONAL FREQUENCIES
-----------------------

Scaling factor for frequencies =  1.000000000  (already applied!)

   0:         0.00 cm**-1
   1:         0.00 cm**-1
   2:         0.00 cm**-1
   3:         0.00 cm**-1
   4:         0.00 cm**-1
   5:         0.00 cm**-1
   6:       127.33 cm**-1
   7:       248.88 cm**-1
   8:       515.68 cm**-1
   9:       793.37 cm**-1
  10:      3977.34 cm**-1
  11:      4016.87 cm**-1


------------
NORMAL MODES
------------

These modes are the Cartesian displacements weighted by the diagonal matrix
M(i,i)=1/sqrt(m[i]) where m[i] is the mass of the displaced atom
Thus, these vectors are normalized but *not* orthogonal

                  0          1          2          3          4          5    
      0       0.000000   0.000000   0.000000   0.000000   0.000000   0.000000
      1       0.000000   0.000000   0.000000   0.000000   0.000000   0.000000
      2       0.000000   0.000000   0.000000   0.000000   0.000000   0.000000
      3       0.000000   0.000000   0.000000   0.000000   0.000000   0.000000
      4       0.000000   0.000000   0.000000   0.000000   0.000000   0.000000
      5       0.000000   0.000000   0.000000   0.000000   0.000000   0.000000
      6       0.000000   0.000000   0.000000   0.000000   0.000000   0.000000
      7       0.000000   0.000000   0.000000   0.000000   0.000000   0.000000
      8       0.000000   0.000000   0.000000   0.000000   0.000000   0.000000
      9       0.000000   0.000000   0.000000   0.000000   0.000000   0.000000
     10       0.000000   0.000000   0.000000   0.000000   0.000000   0.000000
     11       0.000000   0.000000   0.000000   0.000000   0.000000   0.000000
                  6          7          8          9         10         11    
      0       0.001003   0.329735   0.000005   0.020688  -0.038331   0.036412
      1      -0.000003  -0.000004   0.037455  -0.000003   0.000000   0.000000
      2      -0.038419  -0.369706  -0.000008  -0.019446  -0.000095   0.000160
      3      -0.002148   0.337013   0.000003   0.002790   0.725265  -0.686191
      4       0.000013   0.000060  -0.707881   0.000099  -0.000000  -0.000001
      5       0.702621  -0.392395   0.000108   0.708971   0.017829  -0.002563
      6      -0.000473  -0.329748  -0.000009  -0.020885   0.036242   0.038487
      7      -0.000002  -0.000002   0.037475  -0.000004   0.000004   0.000004
      8      -0.036508   0.371635   0.000003   0.019187   0.000283   0.000374
      9      -0.007827  -0.336784   0.000075   0.000929  -0.685881  -0.725446
     10       0.000084   0.000060  -0.704342   0.000028  -0.000076  -0.000080
     11       0.709541   0.356048  -0.000011  -0.704089  -0.021372  -0.007502


-----------
IR SPECTRUM
-----------

 Mode    freq (cm**-1)   T**2         TX         TY         TZ
-------------------------------------------------------------------
   6:       127.33  555.391308  ( -3.386339   0.001295  23.322179)
   7:       248.88    0.042425  (  0.033048   0.000489  -0.203304)
   8:       515.68  272.829507  (  0.000330 -16.517551   0.001379)
   9:       793.37    0.008578  (  0.018360   0.001367   0.090767)
  10:      3977.34    0.237403  (  0.456917  -0.000717  -0.169201)
  11:      4016.87  251.381199  (-15.540865  -0.000723   3.140498)

The first frequency considered to be a vibration is 6
The total number of vibrations considered is 6


--------------------------
THERMOCHEMISTRY AT 273.15K
--------------------------

Temperature         ... 273.15 K
Pressure            ... 1.00 atm
Total Mass          ... 40.01 AMU

Throughout the following assumptions are being made:
  (1) The electronic state is orbitally nondegenerate
  (2) There are no thermally accessible electronically excited states
  (3) Hindered rotations indicated by low frequency modes are not
      treated as such but are treated as vibrations and this may
      cause some error
  (4) All equations used are the standard statistical mechanics
      equations for an ideal gas
  (5) All vibrations are strictly harmonic

freq.     127.33  E(vib)   ...       0.38 
freq.     248.88  E(vib)   ...       0.26 
freq.     515.68  E(vib)   ...       0.10 
freq.     793.37  E(vib)   ...       0.04 
freq.    3977.34  E(vib)   ...       0.00 
freq.    4016.87  E(vib)   ...       0.00 

------------
INNER ENERGY
------------

The inner energy is: U= E(el) + E(ZPE) + E(vib) + E(rot) + E(trans)
    E(el)   - is the total energy from the electronic structure calculation
              = E(kin-el) + E(nuc-el) + E(el-el) + E(nuc-nuc)
    E(ZPE)  - the the zero temperature vibrational energy from the frequency calculation
    E(vib)  - the the finite temperature correction to E(ZPE) due to population
              of excited vibrational states
    E(rot)  - is the rotational thermal energy
    E(trans)- is the translational thermal energy

Summary of contributions to the inner energy U:
Electronic energy                ...   -200.87375088 Eh
Zero point energy                ...      0.02205147 Eh      13.84 kcal/mol
Thermal vibrational correction   ...      0.00124825 Eh       0.78 kcal/mol
Thermal rotational correction    ...      0.00129752 Eh       0.81 kcal/mol
Thermal translational correction ...      0.00129752 Eh       0.81 kcal/mol
-----------------------------------------------------------------------
Total thermal energy                   -200.84785612 Eh


Summary of corrections to the electronic energy:
(perhaps to be used in another calculation)
Total thermal correction                  0.00384328 Eh       2.41 kcal/mol
Non-thermal (ZPE) correction              0.02205147 Eh      13.84 kcal/mol
-----------------------------------------------------------------------
Total correction                          0.02589475 Eh      16.25 kcal/mol


--------
ENTHALPY
--------

The enthalpy is H = U + kB*T
                kB is Boltzmann's constant
Total free energy                 ...   -200.84785612 Eh 
Thermal Enthalpy correction       ...      0.00086504 Eh       0.54 kcal/mol
-----------------------------------------------------------------------
Total Enthalpy                    ...   -200.84699109 Eh


Note: Only C1 symmetry has been detected, increase convergence thresholds 
      if your molecule has a higher symmetry. Symmetry factor of 1.0 is   
      used for the rotational entropy correction. 
 

Note: Rotational entropy computed according to Herzberg 
Infrared and Raman Spectra, Chapter V,1, Van Nostrand Reinhold, 1945 
Point Group:  C1, Symmetry Number:   1  
Rotational constants in cm-1:    18.545057     0.277266     0.273182 

Vibrational entropy computed according to the QRRHO of S. Grimme
Chem.Eur.J. 2012 18 9955


-------
ENTROPY
-------

The entropy contributions are T*S = T*(S(el)+S(vib)+S(rot)+S(trans))
     S(el)   - electronic entropy
     S(vib)  - vibrational entropy
     S(rot)  - rotational entropy
     S(trans)- translational entropy
The entropies will be listed as mutliplied by the temperature to get
units of energy

Electronic entropy                ...      0.00000000 Eh      0.00 kcal/mol
Vibrational entropy               ...      0.00218066 Eh      1.37 kcal/mol
Rotational entropy                ...      0.00845272 Eh      5.30 kcal/mol
Translational entropy             ...      0.01591098 Eh      9.98 kcal/mol
-----------------------------------------------------------------------
Final entropy term                ...      0.02654437 Eh     16.66 kcal/mol

In case the symmetry of your molecule has not been determined correctly
or in case you have a reason to use a different symmetry number we print 
out the resulting rotational entropy values for sn=1,12 :
 --------------------------------------------------------
|  sn= 1 | S(rot)=       0.00845272 Eh      5.30 kcal/mol|
|  sn= 2 | S(rot)=       0.00785314 Eh      4.93 kcal/mol|
|  sn= 3 | S(rot)=       0.00750241 Eh      4.71 kcal/mol|
|  sn= 4 | S(rot)=       0.00725356 Eh      4.55 kcal/mol|
|  sn= 5 | S(rot)=       0.00706054 Eh      4.43 kcal/mol|
|  sn= 6 | S(rot)=       0.00690283 Eh      4.33 kcal/mol|
|  sn= 7 | S(rot)=       0.00676949 Eh      4.25 kcal/mol|
|  sn= 8 | S(rot)=       0.00665398 Eh      4.18 kcal/mol|
|  sn= 9 | S(rot)=       0.00655210 Eh      4.11 kcal/mol|
|  sn=10 | S(rot)=       0.00646096 Eh      4.05 kcal/mol|
|  sn=11 | S(rot)=       0.00637852 Eh      4.00 kcal/mol|
|  sn=12 | S(rot)=       0.00630325 Eh      3.96 kcal/mol|
 --------------------------------------------------------


-------------------
GIBBS FREE ENERGY
-------------------

The Gibbs free energy is G = H - T*S

Total enthalpy                    ...   -200.84699109 Eh 
Total entropy correction          ...     -0.02654437 Eh    -16.66 kcal/mol
-----------------------------------------------------------------------
Final Gibbs free energy         ...   -200.87353545 Eh

For completeness - the Gibbs free energy minus the electronic energy
G-E(el)                           ...      0.00021542 Eh      0.14 kcal/mol


The first frequency considered to be a vibration is 6
The total number of vibrations considered is 6


--------------------------
THERMOCHEMISTRY AT 298.15K
--------------------------

Temperature         ... 298.15 K
Pressure            ... 1.00 atm
Total Mass          ... 40.01 AMU

Throughout the following assumptions are being made:
  (1) The electronic state is orbitally nondegenerate
  (2) There are no thermally accessible electronically excited states
  (3) Hindered rotations indicated by low frequency modes are not
      treated as such but are treated as vibrations and this may
      cause some error
  (4) All equations used are the standard statistical mechanics
      equations for an ideal gas
  (5) All vibrations are strictly harmonic

freq.     127.33  E(vib)   ...       0.43 
freq.     248.88  E(vib)   ...       0.31 
freq.     515.68  E(vib)   ...       0.13 
freq.     793.37  E(vib)   ...       0.05 
freq.    3977.34  E(vib)   ...       0.00 
freq.    4016.87  E(vib)   ...       0.00 

------------
INNER ENERGY
------------

The inner energy is: U= E(el) + E(ZPE) + E(vib) + E(rot) + E(trans)
    E(el)   - is the total energy from the electronic structure calculation
              = E(kin-el) + E(nuc-el) + E(el-el) + E(nuc-nuc)
    E(ZPE)  - the the zero temperature vibrational energy from the frequency calculation
    E(vib)  - the the finite temperature correction to E(ZPE) due to population
              of excited vibrational states
    E(rot)  - is the rotational thermal energy
    E(trans)- is the translational thermal energy

Summary of contributions to the inner energy U:
Electronic energy                ...   -200.87375088 Eh
Zero point energy                ...      0.02205147 Eh      13.84 kcal/mol
Thermal vibrational correction   ...      0.00146484 Eh       0.92 kcal/mol
Thermal rotational correction    ...      0.00141627 Eh       0.89 kcal/mol
Thermal translational correction ...      0.00141627 Eh       0.89 kcal/mol
-----------------------------------------------------------------------
Total thermal energy                   -200.84740202 Eh


Summary of corrections to the electronic energy:
(perhaps to be used in another calculation)
Total thermal correction                  0.00429738 Eh       2.70 kcal/mol
Non-thermal (ZPE) correction              0.02205147 Eh      13.84 kcal/mol
-----------------------------------------------------------------------
Total correction                          0.02634886 Eh      16.53 kcal/mol


--------
ENTHALPY
--------

The enthalpy is H = U + kB*T
                kB is Boltzmann's constant
Total free energy                 ...   -200.84740202 Eh 
Thermal Enthalpy correction       ...      0.00094421 Eh       0.59 kcal/mol
-----------------------------------------------------------------------
Total Enthalpy                    ...   -200.84645781 Eh


Note: Only C1 symmetry has been detected, increase convergence thresholds 
      if your molecule has a higher symmetry. Symmetry factor of 1.0 is   
      used for the rotational entropy correction. 
 

Note: Rotational entropy computed according to Herzberg 
Infrared and Raman Spectra, Chapter V,1, Van Nostrand Reinhold, 1945 
Point Group:  C1, Symmetry Number:   1  
Rotational constants in cm-1:    18.545057     0.277266     0.273182 

Vibrational entropy computed according to the QRRHO of S. Grimme
Chem.Eur.J. 2012 18 9955


-------
ENTROPY
-------

The entropy contributions are T*S = T*(S(el)+S(vib)+S(rot)+S(trans))
     S(el)   - electronic entropy
     S(vib)  - vibrational entropy
     S(rot)  - rotational entropy
     S(trans)- translational entropy
The entropies will be listed as mutliplied by the temperature to get
units of energy

Electronic entropy                ...      0.00000000 Eh      0.00 kcal/mol
Vibrational entropy               ...      0.00259494 Eh      1.63 kcal/mol
Rotational entropy                ...      0.00935039 Eh      5.87 kcal/mol
Translational entropy             ...      0.01757395 Eh     11.03 kcal/mol
-----------------------------------------------------------------------
Final entropy term                ...      0.02951928 Eh     18.52 kcal/mol

In case the symmetry of your molecule has not been determined correctly
or in case you have a reason to use a different symmetry number we print 
out the resulting rotational entropy values for sn=1,12 :
 --------------------------------------------------------
|  sn= 1 | S(rot)=       0.00935039 Eh      5.87 kcal/mol|
|  sn= 2 | S(rot)=       0.00869593 Eh      5.46 kcal/mol|
|  sn= 3 | S(rot)=       0.00831310 Eh      5.22 kcal/mol|
|  sn= 4 | S(rot)=       0.00804148 Eh      5.05 kcal/mol|
|  sn= 5 | S(rot)=       0.00783079 Eh      4.91 kcal/mol|
|  sn= 6 | S(rot)=       0.00765864 Eh      4.81 kcal/mol|
|  sn= 7 | S(rot)=       0.00751310 Eh      4.71 kcal/mol|
|  sn= 8 | S(rot)=       0.00738702 Eh      4.64 kcal/mol|
|  sn= 9 | S(rot)=       0.00727581 Eh      4.57 kcal/mol|
|  sn=10 | S(rot)=       0.00717633 Eh      4.50 kcal/mol|
|  sn=11 | S(rot)=       0.00708634 Eh      4.45 kcal/mol|
|  sn=12 | S(rot)=       0.00700419 Eh      4.40 kcal/mol|
 --------------------------------------------------------


-------------------
GIBBS FREE ENERGY
-------------------

The Gibbs free energy is G = H - T*S

Total enthalpy                    ...   -200.84645781 Eh 
Total entropy correction          ...     -0.02951928 Eh    -18.52 kcal/mol
-----------------------------------------------------------------------
Final Gibbs free energy         ...   -200.87597710 Eh

For completeness - the Gibbs free energy minus the electronic energy
G-E(el)                           ...     -0.00222622 Eh     -1.40 kcal/mol

Actual Hessian File stored as input.001.hess
------------------------------------------------------------------------------
                         ORCA GEOMETRY RELAXATION STEP
------------------------------------------------------------------------------

Reading the OPT-File                    .... done
Getting information on internals        .... done
Copying old internal coords+grads       .... done
Making the new internal coordinates     .... (new redundants).... done
Validating the new internal coordinates .... (new redundants).... done
Calculating the B-matrix                .... done
Calculating the G,G- and P matrices     .... done
Transforming gradient to internals      .... done
Projecting the internal gradient        .... done
Number of atoms                         ....   4
Number of internal coordinates          ....  19
Current Energy                          ....  -200.873750878 Eh
Current gradient norm                   ....     0.001775237 Eh/bohr
Maximum allowed component of the step   ....  0.300
Current trust radius                    ....  0.300
Evaluating the initial hessian          ....  (read) 
(Reading Exact Hessian)...  
InHessName: input.hess	The file <input.hess> is opened as a .hess file
done
done
Diagonalizing the Hessian               .... done
Dimension of the hessian                .... 19
Lowest eigenvalues of the non projected Hessian:
 -0.000000935 -0.000000461 -0.000000246 -0.000000160 -0.000000135
done
Projecting the Hessian                  .... done
Forming the augmented Hessian           .... done
Diagonalizing the augmented Hessian     .... done
Last element of RFO vector              ....  0.998272435
Lowest eigenvalues of augmented Hessian:
 -0.000016787  0.000317211  0.003014196  0.004609134  0.019188353
Length of the computed step             ....  0.058856647
The final length of the internal step   ....  0.058856647
Converting the step to cartesian space:
 Initial RMS(Int)=    0.0135026409
Transforming coordinates:
 Iter   0:  RMS(Cart)=    0.0090188362 RMS(Int)=    2.0385403407
 Iter   1:  RMS(Cart)=    0.0000255856 RMS(Int)=    0.0000316765
 Iter   2:  RMS(Cart)=    0.0000002273 RMS(Int)=    0.0000003156
 Iter   3:  RMS(Cart)=    0.0000000020 RMS(Int)=    0.0000000024
done
Storing new coordinates                 .... done

                                .--------------------.
          ----------------------|Geometry convergence|-------------------------
          Item                value                   Tolerance       Converged
          ---------------------------------------------------------------------
          RMS gradient        0.0002666260            0.0000300000      NO
          MAX gradient        0.0007920112            0.0001000000      NO
          RMS step            0.0135026409            0.0006000000      NO
          MAX step            0.0370880863            0.0010000000      NO
          ........................................................
          Max(Bonds)      0.0196      Max(Angles)    0.83
          Max(Dihed)        0.01      Max(Improp)    0.00
          ---------------------------------------------------------------------

The optimization has not yet converged - more geometry cycles are needed


    ---------------------------------------------------------------------------
                         Redundant Internal Coordinates
                            (Angstroem and degrees)

        Definition                    Value    dE/dq     Step     New-Value
    ----------------------------------------------------------------------------
     1. B(H   1,F   0)                0.9261 -0.000712  0.0010    0.9271   
     2. B(F   2,H   1)                1.9957  0.000072 -0.0089    1.9869   
     3. B(H   3,F   0)                2.0004  0.000096 -0.0196    1.9808   
     4. B(H   3,H   1)                1.8393  0.000158 -0.0191    1.8202   
     5. B(H   3,F   2)                0.9260 -0.000792  0.0011    0.9271   
     6. A(H   1,F   0,H   3)           66.52  0.000070   -0.11     66.41   
     7. A(F   0,H   1,F   2)          113.54 -0.000091   -0.02    113.52   
     8. A(F   2,H   1,H   3)           27.56 -0.000240    0.19     27.75   
     9. A(F   0,H   1,H   3)           85.98  0.000149   -0.21     85.77   
    10. A(H   1,F   2,H   3)           66.78  0.000088   -0.70     66.08   
    11. A(F   0,H   3,H   1)           27.51 -0.000220    0.32     27.82   
    12. A(H   1,H   3,F   2)           85.66  0.000152    0.51     86.17   
    13. A(F   0,H   3,F   2)          113.17 -0.000067    0.83    114.00   
    14. D(F   2,H   1,F   0,H   3)      0.00  0.000000   -0.00     -0.00   
    15. D(H   3,F   2,H   1,F   0)     -0.01 -0.000000    0.01      0.00   
    16. D(F   2,H   3,F   0,H   1)     -0.01 -0.000000    0.01      0.00   
    17. D(F   0,H   3,H   1,F   2)   -179.99  0.000000   -0.01   -180.00   
    18. D(F   0,H   3,F   2,H   1)      0.00  0.000000   -0.00     -0.00   
    19. D(F   2,H   3,H   1,F   0)    179.99 -0.000000    0.01    180.00   
    ----------------------------------------------------------------------------

         *************************************************************
         *                GEOMETRY OPTIMIZATION CYCLE   2            *
         *************************************************************
---------------------------------
CARTESIAN COORDINATES (ANGSTROEM)
---------------------------------
  F      0.001215   -0.000028   -0.007247
  H      0.928313    0.000027   -0.006814
  F      1.721934   -0.000028   -1.828292
  H      0.794808   -0.000072   -1.822147

----------------------------
CARTESIAN COORDINATES (A.U.)
----------------------------
  NO LB      ZA    FRAG     MASS         X           Y           Z
   0 F     9.0000    0    18.998    0.002295   -0.000053   -0.013696
   1 H     1.0000    0     1.008    1.754258    0.000052   -0.012878
   2 F     9.0000    0    18.998    3.253984   -0.000052   -3.454970
   3 H     1.0000    0     1.008    1.501969   -0.000136   -3.443358

--------------------------------
INTERNAL COORDINATES (ANGSTROEM)
--------------------------------
 F      0   0   0     0.000000000000     0.00000000     0.00000000
 H      1   0   0     0.927098824244     0.00000000     0.00000000
 F      2   1   0     1.986860114719   113.51609332     0.00000000
 H      3   2   1     0.927146948871    66.07739865     0.00000000

---------------------------
INTERNAL COORDINATES (A.U.)
---------------------------
 F      0   0   0     0.000000000000     0.00000000     0.00000000
 H      1   0   0     1.751962876902     0.00000000     0.00000000
 F      2   1   0     3.754621483230   113.51609332     0.00000000
 H      3   2   1     1.752053819266    66.07739865     0.00000000

 One Electron integrals                  ... done
 Pre-screening matrix                    ... done

Diagonalization of the overlap matrix:
Smallest eigenvalue                        ... 3.467e-02
Time for diagonalization                   ...    0.001 sec
Threshold for overlap eigenvalues          ... 1.000e-08
Number of eigenvalues below threshold      ... 0
Time for construction of square roots      ...    0.000 sec
Total time needed                          ...    0.002 sec

-------------------
DFT GRID GENERATION
-------------------

General Integration Accuracy     IntAcc      ...  7.000
Radial Grid Type                 RadialGrid  ... Gauss-Chebyshev
Angular Grid (max. acc.)         AngularGrid ... Lebedev-770
Angular grid pruning method      GridPruning ... 3 (G Style)
Weight generation scheme         WeightScheme... Becke
Basis function cutoff            BFCut       ...    1.0000e-12
Integration weight cutoff        WCut        ...    1.0000e-14
Grids for H and He will be reduced by one unit

# of grid points (after initial pruning)     ... 120436 (   0.0 sec)
# of grid points (after weights+screening)   ... 118501 (   0.0 sec)
nearest neighbour list constructed           ...    0.0 sec
Grid point re-assignment to atoms done       ...    0.0 sec
Grid point division into batches done        ...    3.4 sec
Reduced shell lists constructed in    3.8 sec

Total number of grid points                  ...   118501
Total number of batches                      ...     1854
Average number of points per batch           ...       63
Average number of grid points per atom       ...    29625
Average number of shells per batch           ...    15.66 (71.17%)
Average number of basis functions per batch  ...    43.61 (70.34%)
Average number of large shells per batch     ...    13.19 (84.23%)
Average number of large basis fcns per batch ...    35.73 (81.94%)
Maximum spatial batch extension              ...  22.04, 19.66, 16.89 au
Average spatial batch extension              ...   1.69,  1.83,  1.76 au

Time for grid setup =    3.872 sec

--------------------
COSX GRID GENERATION
--------------------

General Integration Accuracy     IntAcc      ...  4.010
Radial Grid Type                 RadialGrid  ... Gauss-Chebyshev
Angular Grid (max. acc.)         AngularGrid ... Lebedev-50
Angular grid pruning method      GridPruning ... 3 (G Style)
Weight generation scheme         WeightScheme... Becke
Basis function cutoff            BFCut       ...    1.0000e-12
Integration weight cutoff        WCut        ...    1.0000e-14
Grids for H and He will be reduced by one unit

# of grid points (after initial pruning)     ...   2768 (   0.0 sec)
# of grid points (after weights+screening)   ...   2698 (   0.0 sec)
nearest neighbour list constructed           ...    0.0 sec
Grid point re-assignment to atoms done       ...    0.0 sec
Grid point division into batches done        ...    0.0 sec
Reduced shell lists constructed in    0.0 sec

Total number of grid points                  ...     2698
Total number of batches                      ...       44
Average number of points per batch           ...       61
Average number of grid points per atom       ...      674
Average number of shells per batch           ...    19.44 (88.38%)
Average number of basis functions per batch  ...    55.58 (89.64%)
Average number of large shells per batch     ...    17.04 (87.66%)
Average number of large basis fcns per batch ...    47.22 (84.97%)
Maximum spatial batch extension              ...  16.94, 28.50, 16.58 au
Average spatial batch extension              ...   4.98,  7.44,  5.82 au

Overlap Fitting                  UseSFitting ... on
Constructing numerical overlap ... done (      0.0 sec)
Inverting numerical overlap    ... done (      0.0 sec)
Obtaining analytic overlap     ... done (      0.0 sec)
Final contraction and storage  ... done (      0.0 sec)


General Integration Accuracy     IntAcc      ...  4.670
Radial Grid Type                 RadialGrid  ... Gauss-Chebyshev
Angular Grid (max. acc.)         AngularGrid ... Lebedev-194
Angular grid pruning method      GridPruning ... 3 (G Style)
Weight generation scheme         WeightScheme... Becke
Basis function cutoff            BFCut       ...    1.0000e-12
Integration weight cutoff        WCut        ...    1.0000e-14
Grids for H and He will be reduced by one unit

# of grid points (after initial pruning)     ...  11056 (   0.0 sec)
# of grid points (after weights+screening)   ...  10900 (   0.0 sec)
nearest neighbour list constructed           ...    0.0 sec
Grid point re-assignment to atoms done       ...    0.0 sec
Grid point division into batches done        ...    0.0 sec
Reduced shell lists constructed in    0.1 sec

Total number of grid points                  ...    10900
Total number of batches                      ...      172
Average number of points per batch           ...       63
Average number of grid points per atom       ...     2725
Average number of shells per batch           ...    17.41 (79.14%)
Average number of basis functions per batch  ...    48.95 (78.95%)
Average number of large shells per batch     ...    15.02 (86.25%)
Average number of large basis fcns per batch ...    41.18 (84.13%)
Maximum spatial batch extension              ...  17.22, 18.84, 18.16 au
Average spatial batch extension              ...   3.52,  4.24,  3.70 au

Overlap Fitting                  UseSFitting ... on
Constructing numerical overlap ... done (      0.0 sec)
Inverting numerical overlap    ... done (      0.0 sec)
Obtaining analytic overlap     ... done (      0.0 sec)
Final contraction and storage  ... done (      0.0 sec)


General Integration Accuracy     IntAcc      ...  4.670
Radial Grid Type                 RadialGrid  ... Gauss-Chebyshev
Angular Grid (max. acc.)         AngularGrid ... Lebedev-302
Angular grid pruning method      GridPruning ... 3 (G Style)
Weight generation scheme         WeightScheme... Becke
Basis function cutoff            BFCut       ...    1.0000e-12
Integration weight cutoff        WCut        ...    1.0000e-14
Grids for H and He will be reduced by one unit

# of grid points (after initial pruning)     ...  19332 (   0.0 sec)
# of grid points (after weights+screening)   ...  19045 (   0.0 sec)
nearest neighbour list constructed           ...    0.0 sec
Grid point re-assignment to atoms done       ...    0.0 sec
Grid point division into batches done        ...    0.1 sec
Reduced shell lists constructed in    0.1 sec

Total number of grid points                  ...    19045
Total number of batches                      ...      298
Average number of points per batch           ...       63
Average number of grid points per atom       ...     4761
Average number of shells per batch           ...    16.74 (76.10%)
Average number of basis functions per batch  ...    46.97 (75.76%)
Average number of large shells per batch     ...    14.25 (85.12%)
Average number of large basis fcns per batch ...    38.92 (82.86%)
Maximum spatial batch extension              ...  16.04, 19.94, 15.08 au
Average spatial batch extension              ...   2.89,  3.42,  3.10 au

Overlap Fitting                  UseSFitting ... on
Constructing numerical overlap ... done (      0.0 sec)
Inverting numerical overlap    ... done (      0.0 sec)
Obtaining analytic overlap     ... done (      0.0 sec)
Final contraction and storage  ... done (      0.0 sec)

Time for X-Grid setup             =    0.354 sec
--------------
SCF ITERATIONS
--------------
ITER       Energy         Delta-E        Max-DP      RMS-DP      [F,P]     Damp
               ***  Starting incremental Fock matrix formation  ***
                      *** Initiating the SOSCF procedure ***
                      *** Re-Reading the Fockian *** 
                      *** Removing any level shift *** 
ITER      Energy       Delta-E        Grad      Rot      Max-DP    RMS-DP
  0   -200.87369390 -200.8736938991  0.001074  0.001074  0.003993  0.000109
               *** Restarting incremental Fock matrix formation ***
  1   -200.87371587  -0.0000219716  0.000307  0.000541  0.000800  0.000036
  2   -200.87371721  -0.0000013366  0.000163  0.000216  0.000343  0.000017
  3   -200.87371726  -0.0000000487  0.000128  0.000101  0.000154  0.000009
  4   -200.87371739  -0.0000001362  0.000005  0.000004  0.000009  0.000000
  5   -200.87371739   0.0000000002  0.000005  0.000002  0.000006  0.000000
  6   -200.87371739  -0.0000000003  0.000001  0.000001  0.000001  0.000000
  7   -200.87371739   0.0000000000  0.000001  0.000000  0.000000  0.000000
                 **** Energy Check signals convergence ****
              ***Rediagonalizing the Fockian in SOSCF/NRSCF***

               *****************************************************
               *                     SUCCESS                       *
               *           SCF CONVERGED AFTER   8 CYCLES          *
               *****************************************************

Old exchange energy                            =     -4.178617011 Eh
New exchange energy                            =     -4.178658645 Eh
Exchange energy change after final integration =     -0.000041634 Eh
Total energy after final integration           =   -200.873759026 Eh
Final COS-X integration done in                =     1.430 sec
Total Energy       :         -200.87375903 Eh           -5466.05287 eV
[...]
 Shell pair data done in (   0.000 sec)
 Computing two index integrals           ... done
 Cholesky decomposition of the V-matrix  ... done


Timings:
 Total evaluation time                   ...   0.144 sec (  0.002 min)
 One electron matrix time                ...   0.006 sec (  0.000 min) =  3.9%
 Schwartz matrix evaluation time         ...   0.094 sec (  0.002 min) = 64.9%
 Two index repulsion integral time       ...   0.000 sec (  0.000 min) =  0.2%
 Cholesky decomposition of V             ...   0.000 sec (  0.000 min) =  0.2%
 Three index repulsion integral time     ...   0.000 sec (  0.000 min) =  0.0%

-------------------------------------------------------------------------------
                                 ORCA SCF
-------------------------------------------------------------------------------

------------
SCF SETTINGS
------------
Hamiltonian:
 Ab initio Hamiltonian  Method          .... Hartree-Fock(GTOs)
 RI-approximation to the Coulomb term is turned on
   Number of auxiliary basis functions  .... 95
   RI-JK (J+K treated both via RI)      .... on


General Settings:
 Integral files         IntName         .... input
 Hartree-Fock type      HFTyp           .... RHF
 Total Charge           Charge          ....    0
 Multiplicity           Mult            ....    1
 Number of Electrons    NEL             ....   10
 Basis Dimension        Dim             ....   74
 Nuclear Repulsion      ENuc            ....      5.1771425537 Eh

Convergence Acceleration:
 DIIS                   CNVDIIS         .... on
   Start iteration      DIISMaxIt       ....    12
   Startup error        DIISStart       ....  0.200000
   # of expansion vecs  DIISMaxEq       ....     5
   Bias factor          DIISBfac        ....   1.050
   Max. coefficient     DIISMaxC        ....  10.000
 Newton-Raphson         CNVNR           .... off
 SOSCF                  CNVSOSCF        .... on
   Start iteration      SOSCFMaxIt      ....   150
   Startup grad/error   SOSCFStart      ....  0.003300
 Level Shifting         CNVShift        .... on
   Level shift para.    LevelShift      ....    0.2500
   Turn off err/grad.   ShiftErr        ....    0.0010
 Zerner damping         CNVZerner       .... off
 Static damping         CNVDamp         .... on
   Fraction old density DampFac         ....    0.7000
   Max. Damping (<1)    DampMax         ....    0.9800
   Min. Damping (>=0)   DampMin         ....    0.0000
   Turn off err/grad.   DampErr         ....    0.1000
 Fernandez-Rico         CNVRico         .... off

SCF Procedure:
 Maximum # iterations   MaxIter         ....   500
 SCF integral mode      SCFMode         .... Direct
   Integral package                     .... LIBINT
 Reset frequency        DirectResetFreq ....    20
 Integral Threshold     Thresh          ....  1.000e-12 Eh
 Primitive CutOff       TCut            ....  1.000e-14 Eh

Convergence Tolerance:
 Convergence Check Mode ConvCheckMode   .... Total+1el-Energy
 Convergence forced     ConvForced      .... 0
 Energy Change          TolE            ....  1.000e-09 Eh
 1-El. energy change                    ....  1.000e-06 Eh
 Orbital Gradient       TolG            ....  2.000e-06
 Orbital Rotation angle TolX            ....  2.000e-06
 DIIS Error             TolErr          ....  1.000e-08


Diagonalization of the overlap matrix:
Smallest eigenvalue                        ... 1.396e-03
Time for diagonalization                   ...    0.001 sec
Threshold for overlap eigenvalues          ... 1.000e-08
Number of eigenvalues below threshold      ... 0
Time for construction of square roots      ...    0.002 sec
Total time needed                          ...    0.003 sec

-------------------
DFT GRID GENERATION
-------------------

General Integration Accuracy     IntAcc      ...  7.000
Radial Grid Type                 RadialGrid  ... Gauss-Chebyshev
Angular Grid (max. acc.)         AngularGrid ... Lebedev-110
Angular grid pruning method      GridPruning ... 3 (G Style)
Weight generation scheme         WeightScheme... Becke
Basis function cutoff            BFCut       ...    1.0000e-12
Integration weight cutoff        WCut        ...    1.0000e-14
Grids for H and He will be reduced by one unit

# of grid points (after initial pruning)     ...   5508 (   0.0 sec)
# of grid points (after weights+screening)   ...   5451 (   0.0 sec)
nearest neighbour list constructed           ...    0.0 sec
Grid point re-assignment to atoms done       ...    0.0 sec
Grid point division into batches done        ...    0.0 sec
Reduced shell lists constructed in    0.0 sec

Total number of grid points                  ...     5451
Total number of batches                      ...       86
Average number of points per batch           ...       63
Average number of grid points per atom       ...     2726
Average number of shells per batch           ...    20.95 (87.31%)
Average number of basis functions per batch  ...    63.90 (86.35%)
Average number of large shells per batch     ...    19.76 (94.30%)
Average number of large basis fcns per batch ...    60.38 (94.50%)
Average number of aux-shells per batch       ...    20.95 (67.59%)
Average number of aux functions per batch    ...    63.90 (67.26%)
Maximum spatial batch extension              ...  20.04, 32.51, 26.54 au
Average spatial batch extension              ...   3.89,  5.20,  4.99 au

Time for grid setup =    0.041 sec

------------------------------
INITIAL GUESS: MODEL POTENTIAL
------------------------------
Loading Hartree-Fock densities                     ... done
Calculating cut-offs                               ... done
Setting up the integral package                    ... done
Initializing the effective Hamiltonian             ... done
Starting the Coulomb interaction                   ... done (   0.0 sec)
Reading the grid                                   ... done
Mapping shells                                     ... done
Starting the XC term evaluation                    ... done (   0.0 sec)
Transforming the Hamiltonian                       ... done (   0.0 sec)
Diagonalizing the Hamiltonian                      ... done (   0.0 sec)
Back transforming the eigenvectors                 ... done (   0.0 sec)
Now organizing SCF variables                       ... done
                      ------------------
                      INITIAL GUESS DONE (   0.1 sec)
                      ------------------
--------------
SCF ITERATIONS
--------------
ITER       Energy         Delta-E        Max-DP      RMS-DP      [F,P]     Damp
  0   -100.0321081453   0.000000000000 0.01008043  0.00054679  0.4465982 0.7000
  1    -99.9678598110   0.064248334304 0.01104633  0.00058219  0.3768441 0.7000
  2    -99.9713568723  -0.003497061330 0.00898109  0.00037830  0.2774714 0.7000
                               ***Turning on DIIS***
  3   -100.0114138952  -0.040057022915 0.00482515  0.00018218  0.1944575 0.7000
  4   -100.0603219715  -0.048908076273 0.00404551  0.00016747  0.1303785 0.7000
  5   -100.0320307515   0.028291220011 0.01420167  0.00053043  0.0838862 0.0000
  6   -100.1280040577  -0.095973306231 0.00251402  0.00010957  0.0228980 0.0000
  7   -100.0929445588   0.035059498910 0.00173104  0.00005316  0.0107724 0.0000
  8   -100.0819624955   0.010982063303 0.00108934  0.00003222  0.0057924 0.0000
                      *** Initiating the SOSCF procedure ***
                           *** Shutting down DIIS ***
                      *** Re-Reading the Fockian *** 
                      *** Removing any level shift *** 
ITER      Energy       Delta-E        Grad      Rot      Max-DP    RMS-DP
  9   -100.07718183   0.0047806638  0.000646  0.000646  0.000784  0.000024
 10   -100.06795383   0.0092280047  0.000150  0.000166  0.000112  0.000007
 11   -100.06795398  -0.0000001492  0.000117  0.000032  0.000055  0.000002
 12   -100.06795403  -0.0000000523  0.000009  0.000008  0.000013  0.000000
 13   -100.06795403  -0.0000000006  0.000002  0.000003  0.000003  0.000000
                  ***Gradient check signals convergence***
              ***Rediagonalizing the Fockian in SOSCF/NRSCF***

               *****************************************************
               *                     SUCCESS                       *
               *           SCF CONVERGED AFTER  14 CYCLES          *
               *****************************************************


----------------
TOTAL SCF ENERGY
----------------

Total Energy       :         -100.06795403 Eh           -2722.98746 eV

Components:
Nuclear Repulsion  :            5.17714255 Eh             140.87721 eV
Electronic Energy  :         -105.24509658 Eh           -2863.86467 eV
One Electron Energy:         -150.56324788 Eh           -4097.03426 eV
Two Electron Energy:           45.31815129 Eh            1233.16959 eV

Virial components:
Potential Energy   :         -200.08094384 Eh           -5444.47927 eV
Kinetic Energy     :          100.01298981 Eh            2721.49181 eV
Virial Ratio       :            2.00054957


---------------
SCF CONVERGENCE
---------------

  Last Energy change         ...   -5.2395e-11  Tolerance :   1.0000e-09
  Last MAX-Density change    ...    5.9385e-07  Tolerance :   1.0000e-08
  Last RMS-Density change    ...    2.4110e-08  Tolerance :   1.0000e-09
  Last Orbital Gradient      ...    4.6518e-07  Tolerance :   2.0000e-06
  Last Orbital Rotation      ...    4.8218e-07  Tolerance :   2.0000e-06

             **** THE GBW FILE WAS UPDATED (input.gbw) ****
             **** DENSITY FILE WAS UPDATED (input.scfp) ****
             **** ENERGY FILE WAS UPDATED (input.en.tmp) ****
             **** THE GBW FILE WAS UPDATED (input.gbw) ****
             **** DENSITY FILE WAS UPDATED (input.scfp) ****
----------------
ORBITAL ENERGIES
----------------

  NO   OCC          E(Eh)            E(eV) 
   0   2.0000     -26.295735      -715.5433 
   1   2.0000      -1.600398       -43.5490 
   2   2.0000      -0.767055       -20.8726 
   3   2.0000      -0.650142       -17.6913 
   4   2.0000      -0.650142       -17.6913 
   5   0.0000       0.112307         3.0560 
   6   0.0000       0.163651         4.4532 
   7   0.0000       0.173096         4.7102 
   8   0.0000       0.173096         4.7102 
   9   0.0000       0.298542         8.1237 
  10   0.0000       0.525025        14.2867 
  11   0.0000       0.794202        21.6113 
  12   0.0000       0.864654        23.5284 
  13   0.0000       0.864654        23.5284 
  14   0.0000       0.915139        24.9022 
  15   0.0000       0.915139        24.9022 
  16   0.0000       1.246532        33.9199 
  17   0.0000       1.477106        40.1941 
  18   0.0000       1.536709        41.8160 
  19   0.0000       1.608435        43.7677 
  20   0.0000       1.608435        43.7677 
  21   0.0000       1.933903        52.6242 
  22   0.0000       1.933903        52.6242 
  23   0.0000       2.350817        63.9690 
  24   0.0000       3.383900        92.0806 
  25   0.0000       3.383900        92.0806 
  26   0.0000       3.462555        94.2209 
  27   0.0000       3.462555        94.2209 
  28   0.0000       3.738235       101.7226 
  29   0.0000       3.738235       101.7226 
  30   0.0000       3.738479       101.7292 
  31   0.0000       4.254869       115.7809 
  32   0.0000       4.262683       115.9935 
  33   0.0000       4.262683       115.9935 
  34   0.0000       4.549266       123.7918 
  35   0.0000       4.549266       123.7918 
  36   0.0000       4.789268       130.3226 
  37   0.0000       4.974771       135.3704 
  38   0.0000       4.974771       135.3704 
  39   0.0000       5.022345       136.6649 
  40   0.0000       5.410945       147.2393 
  41   0.0000       5.410945       147.2393 
  42   0.0000       5.594319       152.2291 
  43   0.0000       5.594319       152.2291 
  44   0.0000       6.012698       163.6138 
  45   0.0000       6.405165       174.2934 
  46   0.0000       6.405165       174.2934 
  47   0.0000       7.480740       203.5613 
  48   0.0000       9.409382       256.0423 
  49   0.0000      11.994004       326.3735 
  50   0.0000      11.994004       326.3735 
  51   0.0000      12.022695       327.1542 
  52   0.0000      12.022695       327.1542 
  53   0.0000      12.162541       330.9596 
  54   0.0000      12.162541       330.9596 
  55   0.0000      12.678074       344.9879 
  56   0.0000      12.678074       344.9879 
  57   0.0000      12.966928       352.8480 
  58   0.0000      13.122827       357.0903 
  59   0.0000      13.122827       357.0903 
  60   0.0000      13.772992       374.7822 
  61   0.0000      15.286327       415.9621 
  62   0.0000      15.286327       415.9621 
  63   0.0000      15.389103       418.7588 
  64   0.0000      15.389103       418.7588 
  65   0.0000      15.868649       431.8079 
  66   0.0000      15.868649       431.8079 
  67   0.0000      16.206818       441.0099 
  68   0.0000      16.517182       449.4554 
  69   0.0000      16.517182       449.4554 
  70   0.0000      16.719967       454.9734 
  71   0.0000      16.719967       454.9734 
  72   0.0000      18.078887       491.9515 
  73   0.0000      54.313401      1477.9428 

                    ********************************
                    * MULLIKEN POPULATION ANALYSIS *
                    ********************************

-----------------------
MULLIKEN ATOMIC CHARGES
-----------------------
   0 F :   -0.340178
   1 H :    0.340178
Sum of atomic charges:   -0.0000000

--------------------------------
MULLIKEN REDUCED ORBITAL CHARGES
--------------------------------
  0 F s       :     3.922448  s :     3.922448
      pz      :     1.965774  p :     5.407331
      px      :     1.475782
      py      :     1.965774
      dz2     :     0.001751  d :     0.009555
      dxz     :     0.001275
      dyz     :     0.000000
      dx2y2   :     0.005253
      dxy     :     0.001275
      f0      :     0.000040  f :     0.000798
      f+1     :     0.000220
      f-1     :     0.000007
      f+2     :     0.000066
      f-2     :     0.000000
      f+3     :     0.000366
      f-3     :     0.000099
      g0      :     0.000005  g :     0.000046
      g+1     :     0.000002
      g-1     :     0.000000
      g+2     :     0.000012
      g-2     :     0.000000
      g+3     :     0.000002
      g-3     :     0.000000
      g+4     :     0.000021
      g-4     :     0.000003
  1 H s       :     0.564397  s :     0.564397
      pz      :     0.029700  p :     0.085707
      px      :     0.026308
      py      :     0.029700
      dz2     :     0.000859  d :     0.009718
      dxz     :     0.003141
      dyz     :     0.000000
      dx2y2   :     0.002577
      dxy     :     0.003141


                     *******************************
                     * LOEWDIN POPULATION ANALYSIS *
                     *******************************

----------------------
LOEWDIN ATOMIC CHARGES
----------------------
   0 F :    0.184404
   1 H :   -0.184404

-------------------------------
LOEWDIN REDUCED ORBITAL CHARGES
-------------------------------
  0 F s       :     3.556845  s :     3.556845
      pz      :     1.849156  p :     5.242777
      px      :     1.544465
      py      :     1.849156
      dz2     :     0.003152  d :     0.013701
      dxz     :     0.000546
      dyz     :     0.000000
      dx2y2   :     0.009457
      dxy     :     0.000546
      f0      :     0.000210  f :     0.002120
      f+1     :     0.000374
      f-1     :     0.000035
      f+2     :     0.000351
      f-2     :     0.000000
      f+3     :     0.000624
      f-3     :     0.000526
      g0      :     0.000005  g :     0.000153
      g+1     :     0.000034
      g-1     :     0.000000
      g+2     :     0.000010
      g-2     :     0.000007
      g+3     :     0.000026
      g-3     :     0.000000
      g+4     :     0.000018
      g-4     :     0.000052
  1 H s       :     0.628904  s :     0.628904
      pz      :     0.102450  p :     0.414759
      px      :     0.209858
      py      :     0.102450
      dz2     :     0.011572  d :     0.140740
      dxz     :     0.047227
      dyz     :     0.000000
      dx2y2   :     0.034715
      dxy     :     0.047227


                      *****************************
                      * MAYER POPULATION ANALYSIS *
                      *****************************

  NA   - Mulliken gross atomic population
  ZA   - Total nuclear charge
  QA   - Mulliken gross atomic charge
  VA   - Mayer's total valence
  BVA  - Mayer's bonded valence
  FA   - Mayer's free valence

  ATOM       NA         ZA         QA         VA         BVA        FA
  0 F      9.3402     9.0000    -0.3402     0.9474     0.9474    -0.0000
  1 H      0.6598     1.0000     0.3402     0.9474     0.9474     0.0000

  Mayer bond orders larger than 0.100000
B(  0-F ,  1-H ) :   0.9474 

-------
TIMINGS
-------

Total SCF time: 0 days 0 hours 0 min 1 sec 

Total time                  ....       1.412 sec
Sum of individual times     ....       1.334 sec  ( 94.4%)

Fock matrix formation       ....       1.192 sec  ( 84.4%)
Diagonalization             ....       0.006 sec  (  0.4%)
Density matrix formation    ....       0.000 sec  (  0.0%)
Population analysis         ....       0.001 sec  (  0.1%)
Initial guess               ....       0.089 sec  (  6.3%)
Orbital Transformation      ....       0.000 sec  (  0.0%)
Orbital Orthonormalization  ....       0.000 sec  (  0.0%)
DIIS solution               ....       0.003 sec  (  0.2%)
SOSCF solution              ....       0.002 sec  (  0.1%)

-------------------------   --------------------
FINAL SINGLE POINT ENERGY      -100.067954029151
-------------------------   --------------------


                            ***************************************
                            *     ORCA property calculations      *
                            ***************************************

                                    ---------------------
                                    Active property flags
                                    ---------------------
   (+) Dipole Moment


------------------------------------------------------------------------------
                       ORCA ELECTRIC PROPERTIES CALCULATION
------------------------------------------------------------------------------

Dipole Moment Calculation                       ... on
Quadrupole Moment Calculation                   ... off
Polarizability Calculation                      ... off
GBWName                                         ... input.gbw
Electron density file                           ... input.scfp
The origin for moment calculation is the CENTER OF MASS  = ( 0.100782,  0.000000  0.000000)

-------------
DIPOLE MOMENT
-------------
                                X             Y             Z
Electronic contribution:     -0.09288      -0.00000       0.00000
Nuclear contribution   :      0.86251       0.00000       0.00000
                        -----------------------------------------
Total Dipole Moment    :      0.76964      -0.00000       0.00000
                        -----------------------------------------
Magnitude (a.u.)       :      0.76964
Magnitude (Debye)      :      1.95626



--------------------
Rotational spectrum 
--------------------
 
Rotational constants in cm-1:     0.000000    20.810462    20.810462 
Rotational constants in MHz :     0.000000 623881.948001 623881.948001 

 Dipole components along the rotational axes: 
x,y,z [a.u.] :     0.769637    -0.000000     0.000000 
x,y,z [Debye]:     1.956262    -0.000000     0.000000 

 

Timings for individual modules:

Sum of individual times         ...        1.609 sec (=   0.027 min)
GTO integral calculation        ...        0.177 sec (=   0.003 min)  11.0 %
SCF iterations                  ...        1.431 sec (=   0.024 min)  89.0 %
                             ****ORCA TERMINATED NORMALLY****
TOTAL RUN TIME: 0 days 0 hours 0 minutes 1 seconds 807 msec
