
                                 *****************
                                 * O   R   C   A *
                                 *****************

           --- An Ab Initio, DFT and Semiempirical electronic structure package ---

                  #######################################################
                  #                        -***-                        #
                  #          Department of theory and spectroscopy      #
                  #               Directorship: Frank Neese             #
                  #        Max Planck Institute fuer Kohlenforschung    #
                  #                Kaiser Wilhelm Platz 1               #
                  #                 D-45470 Muelheim/Ruhr               #
                  #                      Germany                        #
                  #                                                     #
                  #                  All rights reserved                #
                  #                        -***-                        #
                  #######################################################


                         Program Version 4.2.0 -  RELEASE  -


 With contributions from (in alphabetic order):
   Daniel Aravena         : Magnetic Suceptibility
   Michael Atanasov       : Ab Initio Ligand Field Theory (pilot matlab implementation)
   Alexander A. Auer      : GIAO ZORA, VPT2
   Ute Becker             : Parallelization
   Giovanni Bistoni       : ED, misc. LED, open-shell LED, HFLED
   Martin Brehm           : Molecular dynamics
   Dmytro Bykov           : SCF Hessian
   Vijay G. Chilkuri      : MRCI spin determinant printing, contributions to CSF-ICE
   Dipayan Datta          : RHF DLPNO-CCSD density
   Achintya Kumar Dutta   : EOM-CC, STEOM-CC
   Dmitry Ganyushin       : Spin-Orbit,Spin-Spin,Magnetic field MRCI
   Miquel Garcia          : C-PCM Hessian, Gaussian charge scheme
   Yang Guo               : DLPNO-NEVPT2, CIM, IAO-localization
   Andreas Hansen         : Spin unrestricted coupled pair/coupled cluster methods
   Benjamin Helmich-Paris : CASSCF linear response (MC-RPA)
   Lee Huntington         : MR-EOM, pCC
   Robert Izsak           : Overlap fitted RIJCOSX, COSX-SCS-MP3, EOM
   Christian Kollmar      : KDIIS, OOCD, Brueckner-CCSD(T), CCSD density
   Simone Kossmann        : Meta GGA functionals, TD-DFT gradient, OOMP2, MP2 Hessian
   Martin Krupicka        : AUTO-CI
   Lucas Lang             : DCDCAS
   Dagmar Lenk            : GEPOL surface, SMD
   Dimitrios Liakos       : Extrapolation schemes; Compound Job, initial MDCI parallelization
   Dimitrios Manganas     : Further ROCIS development; embedding schemes
   Dimitrios Pantazis     : SARC Basis sets
   Taras Petrenko         : DFT Hessian,TD-DFT gradient, ASA, ECA, R-Raman, ABS, FL, XAS/XES, NRVS
   Peter Pinski           : DLPNO-MP2, DLPNO-MP2 Gradient
   Christoph Reimann      : Effective Core Potentials
   Marius Retegan         : Local ZFS, SOC
   Christoph Riplinger    : Optimizer, TS searches, QM/MM, DLPNO-CCSD(T), (RO)-DLPNO pert. Triples
   Tobias Risthaus        : Range-separated hybrids, TD-DFT gradient, RPA, STAB
   Michael Roemelt        : Original ROCIS implementation
   Masaaki Saitow         : Open-shell DLPNO-CCSD energy and density
   Barbara Sandhoefer     : DKH picture change effects
   Avijit Sen             : IP-ROCIS
   Kantharuban Sivalingam : CASSCF convergence, NEVPT2, FIC-MRCI
   Bernardo de Souza      : ESD, SOC TD-DFT
   Georgi Stoychev        : AutoAux, RI-MP2 NMR
   Willem Van den Heuvel  : Paramagnetic NMR
   Boris Wezisla          : Elementary symmetry handling
   Frank Wennmohs         : Technical directorship


 We gratefully acknowledge several colleagues who have allowed us to
 interface, adapt or use parts of their codes:
   Stefan Grimme, W. Hujo, H. Kruse,             : VdW corrections, initial TS optimization,
                  C. Bannwarth                     DFT functionals, gCP, sTDA/sTD-DF
   Ed Valeev, F. Pavosevic, A. Kumar             : LibInt (2-el integral package), F12 methods
   Garnet Chan, S. Sharma, J. Yang, R. Olivares  : DMRG
   Ulf Ekstrom                                   : XCFun DFT Library
   Mihaly Kallay                                 : mrcc  (arbitrary order and MRCC methods)
   Andreas Klamt, Michael Diedenhofen            : otool_cosmo (COSMO solvation model)
   Jiri Pittner, Ondrej Demel                    : Mk-CCSD
   Frank Weinhold                                : gennbo (NPA and NBO analysis)
   Christopher J. Cramer and Donald G. Truhlar   : smd solvation model
   Lars Goerigk                                  : TD-DFT with DH, B97 family of functionals
   V. Asgeirsson, H. Jonsson                     : NEB implementation
   FAccTs GmbH                                   : IRC, NEB, NEB-TS, Multilevel, MM, QM/MM, CI optimization
   S Lehtola, MJT Oliveira, MAL Marques          : LibXC Library


 Your calculation uses the libint2 library for the computation of 2-el integrals
 For citations please refer to: http://libint.valeyev.net

 Your ORCA version has been built with support for libXC version: 4.2.3
 For citations please refer to: https://tddft.org/programs/libxc/

 This ORCA versions uses:
   CBLAS   interface :  Fast vector & matrix operations
   LAPACKE interface :  Fast linear algebra routines
   SCALAPACK package :  Parallel linear algebra routines


----- Orbital basis set information -----
Your calculation utilizes the basis: def2-SVP
   F. Weigend and R. Ahlrichs, Phys. Chem. Chem. Phys. 7, 3297 (2005).

================================================================================
                                        WARNINGS
                       Please study these warnings very carefully!
================================================================================


WARNING: Geometry Optimization
  ===> : Switching off AutoStart
         For restart on a previous wavefunction, please use MOREAD

INFO   : the flag for use of LIBINT has been found!

================================================================================
                                       INPUT FILE
================================================================================
NAME = input.com
|  1> ! B3LYP/G Grid5   TightOpt  Freq  
|  2> *xyz  0 1
|  3>  C      0.00000000     0.00000000     0.00000000
|  4>  H      1.09336000     0.00000000     0.00000000
|  5>  H     -0.36445000     0.00000000    -1.03083000
|  6>  H     -0.36445000    -0.97188000     0.34361000
|  7>  H     -0.36445000     0.97188000     0.34361000
|  8> *
|  9> %MaxCore  8000
| 10> %scf
| 11>    MaxIter 500 
| 12>    Convergence  VeryTight
| 13> end
| 14> %pal nprocs  1 
| 15> end
| 16> %method
| 17>   IntAcc 7.0
| 18> end
| 19> %geom
| 20>   Calc_Hess true
| 21>   Recalc_Hess 5 
| 22> end
| 23> %freq  Temp  273.15, 298.15
| 24> end
| 25> %basis 
| 26>    NewGTO   C
| 27>    S  6
| 28>        1            3047.52488000               0.00183474
| 29>        2             457.36951800               0.01403732
| 30>        3             103.94868500               0.06884262
| 31>        4              29.21015530               0.23218444
| 32>        5               9.28666296               0.46794135
| 33>        6               3.16392696               0.36231199
| 34>    S  3
| 35>        1               7.86827235              -0.11933242
| 36>        2               1.88128854              -0.16085415
| 37>        3               0.54424926               1.14345644
| 38>    P  3
| 39>        1               7.86827235               0.06899907
| 40>        2               1.88128854               0.31642396
| 41>        3               0.54424926               0.74430829
| 42>    S  1
| 43>        1               0.16871448               1.00000000
| 44>    P  1
| 45>        1               0.16871448               1.00000000
| 46>    D  1
| 47>        1               1.60000000               1.00000000
| 48>    D  1
| 49>        1               0.40000000               1.00000000
| 50>    F  1
| 51>        1               0.80000000               1.00000000
| 52>    end
| 53>    NewGTO   H
| 54>    S  3
| 55>        1              18.73113696               0.03349460
| 56>        2               2.82539437               0.23472695
| 57>        3               0.64012169               0.81375733
| 58>    S  1
| 59>        1               0.16127776               1.00000000
| 60>    P  1
| 61>        1               1.10000000               1.00000000
| 62>    end
| 63> end
| 64> 
| 65>                          ****END OF INPUT****
================================================================================

                       *****************************
                       * Geometry Optimization Run *
                       *****************************

Geometry optimization settings:
Update method            Update   .... BFGS
Choice of coordinates    CoordSys .... Z-matrix Internals
Initial Hessian          InHess   .... Almoef's Model

Convergence Tolerances:
Energy Change            TolE     ....  1.0000e-06 Eh
Max. Gradient            TolMAXG  ....  1.0000e-04 Eh/bohr
RMS Gradient             TolRMSG  ....  3.0000e-05 Eh/bohr
Max. Displacement        TolMAXD  ....  1.0000e-03 bohr
RMS Displacement         TolRMSD  ....  6.0000e-04 bohr
Strict Convergence                ....  False
------------------------------------------------------------------------------
                        ORCA OPTIMIZATION COORDINATE SETUP
------------------------------------------------------------------------------

The optimization will be done in new redundant internal coordinates
Making redundant internal coordinates   ...  (new redundants) done
Evaluating the initial hessian          ...  (Is done on the fly) done
Evaluating the coordinates              ...  done
Calculating the B-matrix                .... done
Calculating the G-matrix                .... done
Diagonalizing the G-matrix              .... done
The first mode is                       ....    1
The number of degrees of freedom        ....    9

    -----------------------------------------------------------------
                    Redundant Internal Coordinates


    -----------------------------------------------------------------
         Definition                    Initial Value    d2E/dq (diagonal element)
    -----------------------------------------------------------------
      1. B(H   1,C   0)                  1.0934         0.000000   
      2. B(H   2,C   0)                  1.0934         0.000000   
      3. B(H   3,C   0)                  1.0934         0.000000   
      4. B(H   4,C   0)                  1.0934         0.000000   
      5. A(H   1,C   0,H   3)          109.4710         0.000000   
      6. A(H   2,C   0,H   3)          100.6720         0.000000   
      7. A(H   1,C   0,H   4)          109.4710         0.000000   
      8. A(H   2,C   0,H   4)          100.6720         0.000000   
      9. A(H   3,C   0,H   4)          125.4683         0.000000   
     10. A(H   1,C   0,H   2)          109.4711         0.000000   
    -----------------------------------------------------------------

Number of atoms                         .... 5
Number of degrees of freedom            .... 10

         *************************************************************
         *                GEOMETRY OPTIMIZATION CYCLE   1            *
         *************************************************************
---------------------------------
CARTESIAN COORDINATES (ANGSTROEM)
---------------------------------
  C      0.000000    0.000000    0.000000
  H      1.093360    0.000000    0.000000
  H     -0.364450    0.000000   -1.030830
  H     -0.364450   -0.971880    0.343610
  H     -0.364450    0.971880    0.343610

----------------------------
CARTESIAN COORDINATES (A.U.)
----------------------------
  NO LB      ZA    FRAG     MASS         X           Y           Z
   0 C     6.0000    0    12.011    0.000000    0.000000    0.000000
   1 H     1.0000    0     1.008    2.066151    0.000000    0.000000
   2 H     1.0000    0     1.008   -0.688711    0.000000   -1.947986
   3 H     1.0000    0     1.008   -0.688711   -1.836587    0.649329
   4 H     1.0000    0     1.008   -0.688711    1.836587    0.649329

--------------------------------
INTERNAL COORDINATES (ANGSTROEM)
--------------------------------
 C      0   0   0     0.000000000000     0.00000000     0.00000000
 H      1   0   0     1.093360000000     0.00000000     0.00000000
 H      1   2   0     1.093359177672   109.47105060     0.00000000
 H      1   2   3     1.093362871603   109.47098216   109.47114364
 H      1   2   3     1.093362871603   109.47098216   250.52885636

---------------------------
INTERNAL COORDINATES (A.U.)
---------------------------
 C      0   0   0     0.000000000000     0.00000000     0.00000000
 H      1   0   0     2.066150965784     0.00000000     0.00000000
 H      1   2   0     2.066149411810   109.47105060     0.00000000
 H      1   2   3     2.066156392327   109.47098216   109.47114364
 H      1   2   3     2.066156392327   109.47098216   250.52885636

---------------------
BASIS SET INFORMATION
---------------------
There are 2 groups of distinct atoms

 Group   1 Type C   : 10s4p2d1f contracted to 3s2p2d1f pattern {631/31/11/1}
 Group   2 Type H   : 4s1p contracted to 2s1p pattern {31/1}

Atom   0C    basis set group =>   1
Atom   1H    basis set group =>   2
Atom   2H    basis set group =>   2
Atom   3H    basis set group =>   2
Atom   4H    basis set group =>   2
------------------------------------------------------------------------------
                           ORCA GTO INTEGRAL CALCULATION
------------------------------------------------------------------------------

                         BASIS SET STATISTICS AND STARTUP INFO

 # of primitive gaussian shells          ...   37
 # of primitive gaussian functions       ...   67
 # of contracted shells                  ...   20
 # of contracted basis functions         ...   46
 Highest angular momentum                ...    3
 Maximum contraction depth               ...    6
 Integral package used                   ... LIBINT
 Integral threshhold            Thresh   ...  1.000e-12
 Primitive cut-off              TCut     ...  1.000e-14


------------------------------ INTEGRAL EVALUATION ----------------------------


 * One electron integrals 
 Pre-screening matrix                    ... done
 Shell pair data                         ... done (   0.000 sec)

-------------------------------------------------------------------------------
                                 ORCA SCF
-------------------------------------------------------------------------------

------------
SCF SETTINGS
------------
Hamiltonian:
 Density Functional     Method          .... DFT(GTOs)
 Exchange Functional    Exchange        .... B88
   X-Alpha parameter    XAlpha          ....  0.666667
   Becke's b parameter  XBeta           ....  0.004200
 Correlation Functional Correlation     .... LYP
 LDA part of GGA corr.  LDAOpt          .... VWN-3
 Gradients option       PostSCFGGA      .... off
 Hybrid DFT is turned on
   Fraction HF Exchange ScalHFX         ....  0.200000
   Scaling of DF-GGA-X  ScalDFX         ....  0.720000
   Scaling of DF-GGA-C  ScalDFC         ....  0.810000
   Scaling of DF-LDA-C  ScalLDAC        ....  1.000000
   Perturbative correction              ....  0.000000
   Density functional embedding theory  .... OFF
   NL short-range parameter             ....  4.800000


General Settings:
 Integral files         IntName         .... input
 Hartree-Fock type      HFTyp           .... RHF
 Total Charge           Charge          ....    0
 Multiplicity           Mult            ....    1
 Number of Electrons    NEL             ....   10
 Basis Dimension        Dim             ....   46
 Nuclear Repulsion      ENuc            ....     13.4059055337 Eh

Convergence Acceleration:
 DIIS                   CNVDIIS         .... on
   Start iteration      DIISMaxIt       ....    12
   Startup error        DIISStart       ....  0.200000
   # of expansion vecs  DIISMaxEq       ....     5
   Bias factor          DIISBfac        ....   1.050
   Max. coefficient     DIISMaxC        ....  10.000
 Newton-Raphson         CNVNR           .... off
 SOSCF                  CNVSOSCF        .... on
   Start iteration      SOSCFMaxIt      ....   150
   Startup grad/error   SOSCFStart      ....  0.003300
 Level Shifting         CNVShift        .... on
   Level shift para.    LevelShift      ....    0.2500
   Turn off err/grad.   ShiftErr        ....    0.0010
 Zerner damping         CNVZerner       .... off
 Static damping         CNVDamp         .... on
   Fraction old density DampFac         ....    0.7000
   Max. Damping (<1)    DampMax         ....    0.9800
   Min. Damping (>=0)   DampMin         ....    0.0000
   Turn off err/grad.   DampErr         ....    0.1000
 Fernandez-Rico         CNVRico         .... off

SCF Procedure:
 Maximum # iterations   MaxIter         ....   500
 SCF integral mode      SCFMode         .... Direct
   Integral package                     .... LIBINT
 Reset frequency        DirectResetFreq ....    20
 Integral Threshold     Thresh          ....  1.000e-12 Eh
 Primitive CutOff       TCut            ....  1.000e-14 Eh

Convergence Tolerance:
 Convergence Check Mode ConvCheckMode   .... Total+1el-Energy
 Convergence forced     ConvForced      .... 0
 Energy Change          TolE            ....  1.000e-09 Eh
 1-El. energy change                    ....  1.000e-06 Eh
 Orbital Gradient       TolG            ....  2.000e-06
 Orbital Rotation angle TolX            ....  2.000e-06
 DIIS Error             TolErr          ....  1.000e-08


Diagonalization of the overlap matrix:
Smallest eigenvalue                        ... 1.533e-02
Time for diagonalization                   ...    0.001 sec
Threshold for overlap eigenvalues          ... 1.000e-08
Number of eigenvalues below threshold      ... 0
Time for construction of square roots      ...    0.000 sec
Total time needed                          ...    0.001 sec

-------------------
DFT GRID GENERATION
-------------------

General Integration Accuracy     IntAcc      ...  7.000
Radial Grid Type                 RadialGrid  ... Gauss-Chebyshev
Angular Grid (max. acc.)         AngularGrid ... Lebedev-434
Angular grid pruning method      GridPruning ... 3 (G Style)
Weight generation scheme         WeightScheme... Becke
Basis function cutoff            BFCut       ...    1.0000e-12
Integration weight cutoff        WCut        ...    1.0000e-14
Grids for H and He will be reduced by one unit

# of grid points (after initial pruning)     ...  64922 (   0.0 sec)
# of grid points (after weights+screening)   ...  63164 (   0.0 sec)
nearest neighbour list constructed           ...    0.0 sec
Grid point re-assignment to atoms done       ...    0.0 sec
Grid point division into batches done        ...    0.7 sec
Reduced shell lists constructed in    0.9 sec

Total number of grid points                  ...    63164
Total number of batches                      ...      990
Average number of points per batch           ...       63
Average number of grid points per atom       ...    12633
Average number of shells per batch           ...    16.72 (83.62%)
Average number of basis functions per batch  ...    38.01 (82.63%)
Average number of large shells per batch     ...    15.56 (93.04%)
Average number of large basis fcns per batch ...    35.27 (92.78%)
Maximum spatial batch extension              ...  20.50, 19.70, 19.56 au
Average spatial batch extension              ...   2.28,  2.22,  2.22 au

Time for grid setup =    0.907 sec

------------------------------
INITIAL GUESS: MODEL POTENTIAL
------------------------------
Loading Hartree-Fock densities                     ... done
Calculating cut-offs                               ... done
Setting up the integral package                    ... done
Initializing the effective Hamiltonian             ... done
Starting the Coulomb interaction                   ... done (   0.0 sec)
Reading the grid                                   ... done
Mapping shells                                     ... done
Starting the XC term evaluation                    ... done (   0.2 sec)
  promolecular density results
     # of electrons  =      9.998041378
     EX              =     -6.306106319
     EC              =     -0.288501649
     EX+EC           =     -6.594607968
Transforming the Hamiltonian                       ... done (   0.0 sec)
Diagonalizing the Hamiltonian                      ... done (   0.0 sec)
Back transforming the eigenvectors                 ... done (   0.0 sec)
Now organizing SCF variables                       ... done
                      ------------------
                      INITIAL GUESS DONE (   1.2 sec)
                      ------------------
--------------
SCF ITERATIONS
--------------
ITER       Energy         Delta-E        Max-DP      RMS-DP      [F,P]     Damp
               ***  Starting incremental Fock matrix formation  ***
  0    -40.4367196523   0.000000000000 0.06861186  0.00363062  0.2079735 0.7000
  1    -40.4735516813  -0.036832029024 0.04666410  0.00269945  0.1073215 0.7000
                               ***Turning on DIIS***
  2    -40.4884551264  -0.014903445094 0.07170398  0.00448563  0.0396585 0.0000
  3    -40.5080753271  -0.019620200676 0.03030422  0.00173585  0.0596813 0.0000
  4    -40.5145278126  -0.006452485513 0.00797713  0.00056767  0.0149627 0.0000
  5    -40.5149638637  -0.000436051183 0.00275844  0.00019070  0.0036255 0.0000
                      *** Initiating the SOSCF procedure ***
                           *** Shutting down DIIS ***
                      *** Re-Reading the Fockian *** 
                      *** Removing any level shift *** 
ITER      Energy       Delta-E        Grad      Rot      Max-DP    RMS-DP
  6    -40.51499356  -0.0000297010  0.000359  0.000359  0.001323  0.000091
               *** Restarting incremental Fock matrix formation ***
  7    -40.51499574  -0.0000021771  0.000035  0.000044  0.000091  0.000005
  8    -40.51499574   0.0000000004  0.000030  0.000027  0.000052  0.000003
                  ***Gradient check signals convergence***
              ***Rediagonalizing the Fockian in SOSCF/NRSCF***

               *****************************************************
               *                     SUCCESS                       *
               *           SCF CONVERGED AFTER   9 CYCLES          *
               *****************************************************


----------------
TOTAL SCF ENERGY
----------------

Total Energy       :          -40.51499575 Eh           -1102.46908 eV

Components:
Nuclear Repulsion  :           13.40590553 Eh             364.79324 eV
Electronic Energy  :          -53.92090128 Eh           -1467.26232 eV
One Electron Energy:          -79.78719482 Eh           -2171.11995 eV
Two Electron Energy:           25.86629354 Eh             703.85763 eV

Virial components:
Potential Energy   :          -80.66654436 Eh           -2195.04827 eV
Kinetic Energy     :           40.15154861 Eh            1092.57918 eV
Virial Ratio       :            2.00905188


DFT components:
N(Alpha)           :        4.999999527767 electrons
N(Beta)            :        4.999999527767 electrons
N(Total)           :        9.999999055534 electrons
E(X)               :       -5.205794884639 Eh       
E(C)               :       -0.387448894214 Eh       
E(XC)              :       -5.593243778854 Eh       
DFET-embed. en.    :        0.000000000000 Eh       

---------------
SCF CONVERGENCE
---------------

  Last Energy change         ...   -9.9317e-09  Tolerance :   1.0000e-09
  Last MAX-Density change    ...    6.3083e-07  Tolerance :   1.0000e-08
  Last RMS-Density change    ...    5.9325e-08  Tolerance :   1.0000e-09
  Last Orbital Gradient      ...    3.9637e-07  Tolerance :   2.0000e-06
  Last Orbital Rotation      ...    7.5254e-07  Tolerance :   2.0000e-06

             **** THE GBW FILE WAS UPDATED (input.gbw) ****
             **** DENSITY FILE WAS UPDATED (input.scfp) ****
             **** ENERGY FILE WAS UPDATED (input.en.tmp) ****
             **** THE GBW FILE WAS UPDATED (input.gbw) ****
             **** DENSITY FILE WAS UPDATED (input.scfp) ****
----------------
ORBITAL ENERGIES
----------------

  NO   OCC          E(Eh)            E(eV) 
   0   2.0000     -10.164821      -276.5988 
   1   2.0000      -0.691245       -18.8097 
   2   2.0000      -0.411078       -11.1860 
   3   2.0000      -0.391454       -10.6520 
   4   2.0000      -0.356752        -9.7077 
   5   0.0000       0.114965         3.1283 
   6   0.0000       0.157139         4.2760 
   7   0.0000       0.178437         4.8555 
   8   0.0000       0.186484         5.0745 
   9   0.0000       0.499817        13.6007 
  10   0.0000       0.511853        13.9282 
  11   0.0000       0.525296        14.2940 
  12   0.0000       0.728036        19.8109 
  13   0.0000       0.754143        20.5213 
  14   0.0000       0.757241        20.6056 
  15   0.0000       0.760142        20.6845 
  16   0.0000       0.777522        21.1575 
  17   0.0000       0.916359        24.9354 
  18   0.0000       1.125243        30.6194 
  19   0.0000       1.539787        41.8997 
  20   0.0000       1.684479        45.8370 
  21   0.0000       1.700663        46.2774 
  22   0.0000       1.962882        53.4127 
  23   0.0000       1.988429        54.1079 
  24   0.0000       2.082860        56.6775 
  25   0.0000       2.319414        63.1145 
  26   0.0000       2.445214        66.5377 
  27   0.0000       2.524731        68.7014 
  28   0.0000       2.700880        73.4947 
  29   0.0000       2.869979        78.0961 
  30   0.0000       2.902011        78.9677 
  31   0.0000       2.954490        80.3958 
  32   0.0000       3.130118        85.1748 
  33   0.0000       3.151729        85.7629 
  34   0.0000       3.538503        96.2876 
  35   0.0000       3.661629        99.6380 
  36   0.0000       3.797268       103.3289 
  37   0.0000       3.886158       105.7477 
  38   0.0000       3.911985       106.4505 
  39   0.0000       4.019197       109.3679 
  40   0.0000       4.150704       112.9464 
  41   0.0000       4.252124       115.7062 
  42   0.0000       4.286331       116.6370 
  43   0.0000       4.638667       126.2245 
  44   0.0000       4.727923       128.6533 
  45   0.0000       4.823300       131.2487 

                    ********************************
                    * MULLIKEN POPULATION ANALYSIS *
                    ********************************

-----------------------
MULLIKEN ATOMIC CHARGES
-----------------------
   0 C :   -0.526129
   1 H :    0.129746
   2 H :    0.128222
   3 H :    0.134080
   4 H :    0.134080
Sum of atomic charges:    0.0000000

--------------------------------
MULLIKEN REDUCED ORBITAL CHARGES
--------------------------------
  0 C s       :     3.289953  s :     3.289953
      pz      :     1.093497  p :     3.200241
      px      :     1.061450
      py      :     1.045293
      dz2     :     0.011811  d :     0.033819
      dxz     :     0.003282
      dyz     :     0.002505
      dx2y2   :     0.011981
      dxy     :     0.004240
      f0      :     0.000250  f :     0.002116
      f+1     :     0.000649
      f-1     :     0.000208
      f+2     :     0.000231
      f-2     :    -0.000003
      f+3     :     0.000618
      f-3     :     0.000163
  1 H s       :     0.858683  s :     0.858683
      pz      :     0.002581  p :     0.011571
      px      :     0.006704
      py      :     0.002286
  2 H s       :     0.859878  s :     0.859878
      pz      :     0.006244  p :     0.011900
      px      :     0.002895
      py      :     0.002761
  3 H s       :     0.854171  s :     0.854171
      pz      :     0.003140  p :     0.011749
      px      :     0.002790
      py      :     0.005819
  4 H s       :     0.854171  s :     0.854171
      pz      :     0.003140  p :     0.011749
      px      :     0.002790
      py      :     0.005819


                     *******************************
                     * LOEWDIN POPULATION ANALYSIS *
                     *******************************

----------------------
LOEWDIN ATOMIC CHARGES
----------------------
   0 C :   -0.448080
   1 H :    0.109606
   2 H :    0.112018
   3 H :    0.113228
   4 H :    0.113228

-------------------------------
LOEWDIN REDUCED ORBITAL CHARGES
-------------------------------
  0 C s       :     2.939466  s :     2.939466
      pz      :     1.154647  p :     3.381282
      px      :     1.122420
      py      :     1.104214
      dz2     :     0.034618  d :     0.114625
      dxz     :     0.010798
      dyz     :     0.012148
      dx2y2   :     0.042476
      dxy     :     0.014585
      f0      :     0.002043  f :     0.012707
      f+1     :     0.003516
      f-1     :     0.000726
      f+2     :     0.001001
      f-2     :     0.001220
      f+3     :     0.003222
      f-3     :     0.000979
  1 H s       :     0.849175  s :     0.849175
      pz      :     0.008804  p :     0.041219
      px      :     0.024681
      py      :     0.007734
  2 H s       :     0.846296  s :     0.846296
      pz      :     0.022788  p :     0.041686
      px      :     0.010167
      py      :     0.008732
  3 H s       :     0.844994  s :     0.844994
      pz      :     0.010788  p :     0.041778
      px      :     0.009914
      py      :     0.021077
  4 H s       :     0.844994  s :     0.844994
      pz      :     0.010788  p :     0.041778
      px      :     0.009914
      py      :     0.021077


                      *****************************
                      * MAYER POPULATION ANALYSIS *
                      *****************************

  NA   - Mulliken gross atomic population
  ZA   - Total nuclear charge
  QA   - Mulliken gross atomic charge
  VA   - Mayer's total valence
  BVA  - Mayer's bonded valence
  FA   - Mayer's free valence

  ATOM       NA         ZA         QA         VA         BVA        FA
  0 C      6.5261     6.0000    -0.5261     3.8943     3.8943     0.0000
  1 H      0.8703     1.0000     0.1297     0.9555     0.9555    -0.0000
  2 H      0.8718     1.0000     0.1282     0.9485     0.9485     0.0000
  3 H      0.8659     1.0000     0.1341     0.9561     0.9561    -0.0000
  4 H      0.8659     1.0000     0.1341     0.9561     0.9561     0.0000

  Mayer bond orders larger than 0.100000
B(  0-C ,  1-H ) :   0.9744 B(  0-C ,  2-H ) :   0.9734 B(  0-C ,  3-H ) :   0.9732 
B(  0-C ,  4-H ) :   0.9732 

-------
TIMINGS
-------

Total SCF time: 0 days 0 hours 0 min 4 sec 

Total time                  ....       4.442 sec
Sum of individual times     ....       4.283 sec  ( 96.4%)

Fock matrix formation       ....       3.113 sec  ( 70.1%)
  XC integration            ....       2.154 sec  ( 69.2% of F)
    Basis function eval.    ....       0.861 sec  ( 40.0% of XC)
    Density eval.           ....       0.329 sec  ( 15.3% of XC)
    XC-Functional eval.     ....       0.401 sec  ( 18.6% of XC)
    XC-Potential eval.      ....       0.428 sec  ( 19.9% of XC)
Diagonalization             ....       0.002 sec  (  0.0%)
Density matrix formation    ....       0.000 sec  (  0.0%)
Population analysis         ....       0.001 sec  (  0.0%)
Initial guess               ....       0.259 sec  (  5.8%)
Orbital Transformation      ....       0.000 sec  (  0.0%)
Orbital Orthonormalization  ....       0.000 sec  (  0.0%)
DIIS solution               ....       0.001 sec  (  0.0%)
SOSCF solution              ....       0.001 sec  (  0.0%)
Grid generation             ....       0.907 sec  ( 20.4%)

-------------------------   --------------------
FINAL SINGLE POINT ENERGY       -40.514995751306
-------------------------   --------------------

------------------------------------------------------------------------------
                         ORCA SCF GRADIENT CALCULATION
------------------------------------------------------------------------------

Gradient of the Kohn-Sham DFT energy:
Kohn-Sham wavefunction type      ... RKS
Hartree-Fock exchange scaling    ...    0.200
Number of operators              ...    1
Number of atoms                  ...    5
Basis set dimensions             ...   46
Integral neglect threshold       ... 1.0e-12
Integral primitive cutoff        ... 1.0e-14

Nuclear repulsion gradient       ... done
One Electron Gradient            ... done
Pre-screening matrix             ... done
Starting the two electron gradient:
Two electron gradient done
Exchange-correlation gradient    ... done

------------------
CARTESIAN GRADIENT
------------------

   1   C   :   -0.002116061    0.000000000    0.028335506
   2   H   :    0.001218378   -0.000000000    0.000945096
   3   H   :   -0.008291199    0.000000000    0.008613044
   4   H   :    0.004594441   -0.011222354   -0.018946823
   5   H   :    0.004594441    0.011222354   -0.018946823

Difference to translation invariance:
           :    0.0000000000    0.0000000000    0.0000000000

Norm of the cartesian gradient     ...    0.0443254925
RMS gradient                       ...    0.0114447930
MAX gradient                       ...    0.0283355060

-------
TIMINGS
-------

Total SCF gradient time            ...        1.107 sec

One electron gradient       ....       0.004 sec  (  0.4%)
Prescreening matrices       ....       0.017 sec  (  1.5%)
Two electron gradient       ....       0.153 sec  ( 13.8%)
XC gradient                 ....       0.830 sec  ( 75.0%)

-------------------------------------------------------------------------------
                               ORCA SCF HESSIAN
-------------------------------------------------------------------------------

Hessian of the Kohn-Sham DFT energy:
Kohn-Sham wavefunction type                      ... RKS
Hartree-Fock exchange scaling                    ...    0.200
Number of operators                              ...    1
Number of atoms                                  ...    5
Basis set dimensions                             ...   46
Integral neglect threshold                       ... 1.0e-12
Integral primitive cutoff                        ... 1.0e-14

Setting up DFT Hessian calculations              ... 
Electron density on the grid                     ... found on disk
Building xc-kernel on the grid                   ... done   (      0.1 sec)
                                                     done   (      0.1 sec)

Nuclear repulsion Hessian                        ... done   (      0.0 sec)

----------------------------------------------
Forming right-hand sides of CP-SCF equations     ...
----------------------------------------------
One electron integral derivatives                ... done   (      0.1 sec)
Transforming the overlap derivative matrices     ... done   (      0.0 sec)
Making the Q(x) pseudodensities                  ... done   (      0.0 sec)
Adding the E*S(x)*S(y) terms to the Hessian      ... done   (      0.0 sec)
Calculating energy weighted overlap derivatives  ... done   (      0.0 sec)
Two electron integral derivatives                ... done   (      0.3 sec)
Exchange-correlation integral derivatives        ... done   (      4.3 sec)
tr(F(y)Q(x)) contribution to the Hessian         ... done   (      0.0 sec)
Response fock operator R(S(x))                   ... done   (      0.3 sec)
XC Response fock operator R(S(x))                ... done   (      1.3 sec)
tr(F(y)S(x)) contribution to the Hessian         ... done   (      0.0 sec)
Transforming and finalizing RHSs                 ... done   (      0.0 sec)

----------------------------------------------
Solving the CP-SCF equations                     ...
----------------------------------------------
     CP-SCF ITERATION   0: 
     CP-SCF ITERATION   1:      0.000160712205
     CP-SCF ITERATION   2:      0.000004644860
     CP-SCF ITERATION   3:      0.000000040965
     CP-SCF ITERATION   4:      0.000000000906

                                                 ... done   (      8.7 sec)
Forming perturbed density Hessian contributions  ... done   (      0.0 sec)
Making the perturbed densities                   ... done   (      0.0 sec)
2nd integral derivative contribs                 ... done   (      1.4 sec)
Exchange-correlation Hessian                     ... done   (      5.4 sec)
Dipol derivatives                                ... done   (      0.1 sec)

Total SCF Hessian time: 0 days 0 hours 0 min 22 sec 

Writing the Hessian file to the disk             ... done


Maximum memory used throughout the entire calculation: 150.9 MB

-----------------------
VIBRATIONAL FREQUENCIES
-----------------------

Scaling factor for frequencies =  1.000000000  (already applied!)

   0:         0.00 cm**-1
   1:         0.00 cm**-1
   2:         0.00 cm**-1
   3:         0.00 cm**-1
   4:         0.00 cm**-1
   5:         0.00 cm**-1
   6:      1242.41 cm**-1
   7:      1329.47 cm**-1
   8:      1403.70 cm**-1
   9:      1530.61 cm**-1
  10:      1590.09 cm**-1
  11:      3028.59 cm**-1
  12:      3086.82 cm**-1
  13:      3149.18 cm**-1
  14:      3186.90 cm**-1


------------
NORMAL MODES
------------

These modes are the Cartesian displacements weighted by the diagonal matrix
M(i,i)=1/sqrt(m[i]) where m[i] is the mass of the displaced atom
Thus, these vectors are normalized but *not* orthogonal

                  0          1          2          3          4          5    
      0       0.000000   0.000000   0.000000   0.000000   0.000000   0.000000
      1       0.000000   0.000000   0.000000   0.000000   0.000000   0.000000
      2       0.000000   0.000000   0.000000   0.000000   0.000000   0.000000
      3       0.000000   0.000000   0.000000   0.000000   0.000000   0.000000
      4       0.000000   0.000000   0.000000   0.000000   0.000000   0.000000
      5       0.000000   0.000000   0.000000   0.000000   0.000000   0.000000
      6       0.000000   0.000000   0.000000   0.000000   0.000000   0.000000
      7       0.000000   0.000000   0.000000   0.000000   0.000000   0.000000
      8       0.000000   0.000000   0.000000   0.000000   0.000000   0.000000
      9       0.000000   0.000000   0.000000   0.000000   0.000000   0.000000
     10       0.000000   0.000000   0.000000   0.000000   0.000000   0.000000
     11       0.000000   0.000000   0.000000   0.000000   0.000000   0.000000
     12       0.000000   0.000000   0.000000   0.000000   0.000000   0.000000
     13       0.000000   0.000000   0.000000   0.000000   0.000000   0.000000
     14       0.000000   0.000000   0.000000   0.000000   0.000000   0.000000
                  6          7          8          9         10         11    
      0       0.017766  -0.121815   0.000000   0.013833   0.000000   0.002301
      1      -0.000000  -0.000000  -0.118487  -0.000000   0.007470  -0.000000
      2       0.129610   0.019489  -0.000000  -0.008399   0.000000  -0.017444
      3       0.009567  -0.088710   0.000000   0.012046  -0.000000   0.459976
      4       0.000000   0.000000   0.664426  -0.000000   0.458978   0.000000
      5      -0.531166  -0.087202   0.000000   0.528355   0.000000  -0.009606
      6       0.098557   0.415970  -0.000000  -0.578088  -0.000000  -0.056542
      7       0.000000   0.000000   0.538439   0.000000  -0.577874  -0.000000
      8       0.052961  -0.148621   0.000000   0.180186   0.000000  -0.213808
      9      -0.159909   0.562123  -0.233597   0.200603  -0.360920  -0.215425
     10      -0.185237  -0.266663   0.104494  -0.209979   0.014946  -0.525972
     11      -0.533091   0.001802   0.248605  -0.304233  -0.311747   0.215638
     12      -0.159909   0.562123   0.233597   0.200603   0.360920  -0.215425
     13       0.185237   0.266663   0.104494   0.209979   0.014946   0.525972
     14      -0.533091   0.001802  -0.248605  -0.304233   0.311747   0.215638
                  12         13         14    
      0       0.023867  -0.088769  -0.000000
      1      -0.000000  -0.000000   0.098144
      2      -0.078127  -0.024487  -0.000000
      3      -0.365312   0.806122   0.000000
      4       0.000000   0.000000   0.023960
      5      -0.012143  -0.000337  -0.000000
      6       0.279958   0.140632   0.000000
      7       0.000000  -0.000000   0.040252
      8       0.791999   0.475818   0.000000
      9      -0.099521   0.055496  -0.237238
     10      -0.247857   0.190359  -0.616830
     11       0.075540  -0.091851   0.239428
     12      -0.099521   0.055496   0.237238
     13       0.247857  -0.190359  -0.616830
     14       0.075540  -0.091851  -0.239428


-----------
IR SPECTRUM
-----------

 Mode    freq (cm**-1)   T**2         TX         TY         TZ
-------------------------------------------------------------------
   6:      1242.41   23.196714  ( -0.998681   0.000000  -4.711619)
   7:      1329.47   10.177639  (  3.183518   0.000000  -0.207006)
   8:      1403.70    7.142720  ( -0.000000   2.672587   0.000000)
   9:      1530.61    0.125893  ( -0.352484   0.000000   0.040599)
  10:      1590.09    0.110555  ( -0.000000  -0.332499  -0.000000)
  11:      3028.59    0.800924  (  0.021013  -0.000000  -0.894697)
  12:      3086.82   30.450820  (  0.887502   0.000000  -5.446390)
  13:      3149.18   24.246786  ( -4.507908  -0.000000  -1.981301)
  14:      3186.90   11.012446  ( -0.000000   3.318501   0.000000)

The first frequency considered to be a vibration is 6
The total number of vibrations considered is 9


--------------------------
THERMOCHEMISTRY AT 273.15K
--------------------------

Temperature         ... 273.15 K
Pressure            ... 1.00 atm
Total Mass          ... 16.04 AMU

Throughout the following assumptions are being made:
  (1) The electronic state is orbitally nondegenerate
  (2) There are no thermally accessible electronically excited states
  (3) Hindered rotations indicated by low frequency modes are not
      treated as such but are treated as vibrations and this may
      cause some error
  (4) All equations used are the standard statistical mechanics
      equations for an ideal gas
  (5) All vibrations are strictly harmonic

freq.    1242.41  E(vib)   ...       0.01 
freq.    1329.47  E(vib)   ...       0.00 
freq.    1403.70  E(vib)   ...       0.00 
freq.    1530.61  E(vib)   ...       0.00 
freq.    1590.09  E(vib)   ...       0.00 
freq.    3028.59  E(vib)   ...       0.00 
freq.    3086.82  E(vib)   ...       0.00 
freq.    3149.18  E(vib)   ...       0.00 
freq.    3186.90  E(vib)   ...       0.00 

------------
INNER ENERGY
------------

The inner energy is: U= E(el) + E(ZPE) + E(vib) + E(rot) + E(trans)
    E(el)   - is the total energy from the electronic structure calculation
              = E(kin-el) + E(nuc-el) + E(el-el) + E(nuc-nuc)
    E(ZPE)  - the the zero temperature vibrational energy from the frequency calculation
    E(vib)  - the the finite temperature correction to E(ZPE) due to population
              of excited vibrational states
    E(rot)  - is the rotational thermal energy
    E(trans)- is the translational thermal energy

Summary of contributions to the inner energy U:
Electronic energy                ...    -40.51499575 Eh
Zero point energy                ...      0.04453309 Eh      27.94 kcal/mol
Thermal vibrational correction   ...      0.00002148 Eh       0.01 kcal/mol
Thermal rotational correction    ...      0.00129752 Eh       0.81 kcal/mol
Thermal translational correction ...      0.00129752 Eh       0.81 kcal/mol
-----------------------------------------------------------------------
Total thermal energy                    -40.46784615 Eh


Summary of corrections to the electronic energy:
(perhaps to be used in another calculation)
Total thermal correction                  0.00261651 Eh       1.64 kcal/mol
Non-thermal (ZPE) correction              0.04453309 Eh      27.94 kcal/mol
-----------------------------------------------------------------------
Total correction                          0.04714961 Eh      29.59 kcal/mol


--------
ENTHALPY
--------

The enthalpy is H = U + kB*T
                kB is Boltzmann's constant
Total free energy                 ...    -40.46784615 Eh 
Thermal Enthalpy correction       ...      0.00086504 Eh       0.54 kcal/mol
-----------------------------------------------------------------------
Total Enthalpy                    ...    -40.46698111 Eh


Note: Rotational entropy computed according to Herzberg 
Infrared and Raman Spectra, Chapter V,1, Van Nostrand Reinhold, 1945 
Point Group:  Cs, Symmetry Number:   1  
Rotational constants in cm-1:     5.796357     5.334011     4.740168 

Vibrational entropy computed according to the QRRHO of S. Grimme
Chem.Eur.J. 2012 18 9955


-------
ENTROPY
-------

The entropy contributions are T*S = T*(S(el)+S(vib)+S(rot)+S(trans))
     S(el)   - electronic entropy
     S(vib)  - vibrational entropy
     S(rot)  - rotational entropy
     S(trans)- translational entropy
The entropies will be listed as mutliplied by the temperature to get
units of energy

Electronic entropy                ...      0.00000000 Eh      0.00 kcal/mol
Vibrational entropy               ...      0.00002453 Eh      0.02 kcal/mol
Rotational entropy                ...      0.00644261 Eh      4.04 kcal/mol
Translational entropy             ...      0.01472517 Eh      9.24 kcal/mol
-----------------------------------------------------------------------
Final entropy term                ...      0.02119231 Eh     13.30 kcal/mol

In case the symmetry of your molecule has not been determined correctly
or in case you have a reason to use a different symmetry number we print 
out the resulting rotational entropy values for sn=1,12 :
 --------------------------------------------------------
|  sn= 1 | S(rot)=       0.00644261 Eh      4.04 kcal/mol|
|  sn= 2 | S(rot)=       0.00584303 Eh      3.67 kcal/mol|
|  sn= 3 | S(rot)=       0.00549230 Eh      3.45 kcal/mol|
|  sn= 4 | S(rot)=       0.00524345 Eh      3.29 kcal/mol|
|  sn= 5 | S(rot)=       0.00505043 Eh      3.17 kcal/mol|
|  sn= 6 | S(rot)=       0.00489272 Eh      3.07 kcal/mol|
|  sn= 7 | S(rot)=       0.00475938 Eh      2.99 kcal/mol|
|  sn= 8 | S(rot)=       0.00464387 Eh      2.91 kcal/mol|
|  sn= 9 | S(rot)=       0.00454199 Eh      2.85 kcal/mol|
|  sn=10 | S(rot)=       0.00445085 Eh      2.79 kcal/mol|
|  sn=11 | S(rot)=       0.00436841 Eh      2.74 kcal/mol|
|  sn=12 | S(rot)=       0.00429314 Eh      2.69 kcal/mol|
 --------------------------------------------------------


-------------------
GIBBS FREE ENERGY
-------------------

The Gibbs free energy is G = H - T*S

Total enthalpy                    ...    -40.46698111 Eh 
Total entropy correction          ...     -0.02119231 Eh    -13.30 kcal/mol
-----------------------------------------------------------------------
Final Gibbs free energy         ...    -40.48817342 Eh

For completeness - the Gibbs free energy minus the electronic energy
G-E(el)                           ...      0.02682233 Eh     16.83 kcal/mol


The first frequency considered to be a vibration is 6
The total number of vibrations considered is 9


--------------------------
THERMOCHEMISTRY AT 298.15K
--------------------------

Temperature         ... 298.15 K
Pressure            ... 1.00 atm
Total Mass          ... 16.04 AMU

Throughout the following assumptions are being made:
  (1) The electronic state is orbitally nondegenerate
  (2) There are no thermally accessible electronically excited states
  (3) Hindered rotations indicated by low frequency modes are not
      treated as such but are treated as vibrations and this may
      cause some error
  (4) All equations used are the standard statistical mechanics
      equations for an ideal gas
  (5) All vibrations are strictly harmonic

freq.    1242.41  E(vib)   ...       0.01 
freq.    1329.47  E(vib)   ...       0.01 
freq.    1403.70  E(vib)   ...       0.00 
freq.    1530.61  E(vib)   ...       0.00 
freq.    1590.09  E(vib)   ...       0.00 
freq.    3028.59  E(vib)   ...       0.00 
freq.    3086.82  E(vib)   ...       0.00 
freq.    3149.18  E(vib)   ...       0.00 
freq.    3186.90  E(vib)   ...       0.00 

------------
INNER ENERGY
------------

The inner energy is: U= E(el) + E(ZPE) + E(vib) + E(rot) + E(trans)
    E(el)   - is the total energy from the electronic structure calculation
              = E(kin-el) + E(nuc-el) + E(el-el) + E(nuc-nuc)
    E(ZPE)  - the the zero temperature vibrational energy from the frequency calculation
    E(vib)  - the the finite temperature correction to E(ZPE) due to population
              of excited vibrational states
    E(rot)  - is the rotational thermal energy
    E(trans)- is the translational thermal energy

Summary of contributions to the inner energy U:
Electronic energy                ...    -40.51499575 Eh
Zero point energy                ...      0.04453309 Eh      27.94 kcal/mol
Thermal vibrational correction   ...      0.00003910 Eh       0.02 kcal/mol
Thermal rotational correction    ...      0.00141627 Eh       0.89 kcal/mol
Thermal translational correction ...      0.00141627 Eh       0.89 kcal/mol
-----------------------------------------------------------------------
Total thermal energy                    -40.46759102 Eh


Summary of corrections to the electronic energy:
(perhaps to be used in another calculation)
Total thermal correction                  0.00287164 Eh       1.80 kcal/mol
Non-thermal (ZPE) correction              0.04453309 Eh      27.94 kcal/mol
-----------------------------------------------------------------------
Total correction                          0.04740473 Eh      29.75 kcal/mol


--------
ENTHALPY
--------

The enthalpy is H = U + kB*T
                kB is Boltzmann's constant
Total free energy                 ...    -40.46759102 Eh 
Thermal Enthalpy correction       ...      0.00094421 Eh       0.59 kcal/mol
-----------------------------------------------------------------------
Total Enthalpy                    ...    -40.46664681 Eh


Note: Rotational entropy computed according to Herzberg 
Infrared and Raman Spectra, Chapter V,1, Van Nostrand Reinhold, 1945 
Point Group:  Cs, Symmetry Number:   1  
Rotational constants in cm-1:     5.796357     5.334011     4.740168 

Vibrational entropy computed according to the QRRHO of S. Grimme
Chem.Eur.J. 2012 18 9955


-------
ENTROPY
-------

The entropy contributions are T*S = T*(S(el)+S(vib)+S(rot)+S(trans))
     S(el)   - electronic entropy
     S(vib)  - vibrational entropy
     S(rot)  - rotational entropy
     S(trans)- translational entropy
The entropies will be listed as mutliplied by the temperature to get
units of energy

Electronic entropy                ...      0.00000000 Eh      0.00 kcal/mol
Vibrational entropy               ...      0.00004512 Eh      0.03 kcal/mol
Rotational entropy                ...      0.00715630 Eh      4.49 kcal/mol
Translational entropy             ...      0.01627961 Eh     10.22 kcal/mol
-----------------------------------------------------------------------
Final entropy term                ...      0.02348103 Eh     14.73 kcal/mol

In case the symmetry of your molecule has not been determined correctly
or in case you have a reason to use a different symmetry number we print 
out the resulting rotational entropy values for sn=1,12 :
 --------------------------------------------------------
|  sn= 1 | S(rot)=       0.00715630 Eh      4.49 kcal/mol|
|  sn= 2 | S(rot)=       0.00650185 Eh      4.08 kcal/mol|
|  sn= 3 | S(rot)=       0.00611901 Eh      3.84 kcal/mol|
|  sn= 4 | S(rot)=       0.00584739 Eh      3.67 kcal/mol|
|  sn= 5 | S(rot)=       0.00563670 Eh      3.54 kcal/mol|
|  sn= 6 | S(rot)=       0.00546456 Eh      3.43 kcal/mol|
|  sn= 7 | S(rot)=       0.00531901 Eh      3.34 kcal/mol|
|  sn= 8 | S(rot)=       0.00519293 Eh      3.26 kcal/mol|
|  sn= 9 | S(rot)=       0.00508173 Eh      3.19 kcal/mol|
|  sn=10 | S(rot)=       0.00498225 Eh      3.13 kcal/mol|
|  sn=11 | S(rot)=       0.00489226 Eh      3.07 kcal/mol|
|  sn=12 | S(rot)=       0.00481010 Eh      3.02 kcal/mol|
 --------------------------------------------------------


-------------------
GIBBS FREE ENERGY
-------------------

The Gibbs free energy is G = H - T*S

Total enthalpy                    ...    -40.46664681 Eh 
Total entropy correction          ...     -0.02348103 Eh    -14.73 kcal/mol
-----------------------------------------------------------------------
Final Gibbs free energy         ...    -40.49012784 Eh

For completeness - the Gibbs free energy minus the electronic energy
G-E(el)                           ...      0.02486791 Eh     15.60 kcal/mol

Actual Hessian File stored as input.001.hess
------------------------------------------------------------------------------
                         ORCA GEOMETRY RELAXATION STEP
------------------------------------------------------------------------------

Reading the OPT-File                    .... done
Getting information on internals        .... done
Copying old internal coords+grads       .... done
Making the new internal coordinates     .... (new redundants).... done
Validating the new internal coordinates .... (new redundants).... done
Calculating the B-matrix                .... done
Calculating the G,G- and P matrices     .... done
Transforming gradient to internals      .... done
Projecting the internal gradient        .... done
Number of atoms                         ....   5
Number of internal coordinates          ....  10
Current Energy                          ....   -40.514995751 Eh
Current gradient norm                   ....     0.044325493 Eh/bohr
Maximum allowed component of the step   ....  0.300
Current trust radius                    ....  0.300
Evaluating the initial hessian          ....  (read) 
(Reading Exact Hessian)...  
InHessName: input.hess	The file <input.hess> is opened as a .hess file
done
done
Diagonalizing the Hessian               .... done
Dimension of the hessian                .... 10
Lowest eigenvalues of the non projected Hessian:
 -0.000000339  0.102304479  0.113916343  0.131018136  0.134196852
done
Projecting the Hessian                  .... done
Forming the augmented Hessian           .... done
Diagonalizing the augmented Hessian     .... done
Last element of RFO vector              ....  0.950059940
Lowest eigenvalues of augmented Hessian:
 -0.015071121  0.106105489  0.113916343  0.133861321  0.134196852
Length of the computed step             ....  0.328471355
Warning: the length of the step is outside the trust region - taking restricted step instead
The input lambda is                     ....    -0.015071
   iter:   1  x=   -0.026375  g=    1.582928 f(x)=     0.017893
   iter:   2  x=   -0.028015  g=    1.241527 f(x)=     0.002035
   iter:   3  x=   -0.028043  g=    1.200558 f(x)=     0.000034
   iter:   4  x=   -0.028043  g=    1.199869 f(x)=     0.000000
   iter:   5  x=   -0.028043  g=    1.199869 f(x)=     0.000000
The output lambda is                    ....    -0.028043 (5 iterations)
The final length of the internal step   ....  0.300000000
Converting the step to cartesian space:
 Initial RMS(Int)=    0.0948683298
Transforming coordinates:
 Iter   0:  RMS(Cart)=    0.0875690711 RMS(Int)=    0.0978131946
 Iter   1:  RMS(Cart)=    0.0076945025 RMS(Int)=    0.0105502651
 Iter   2:  RMS(Cart)=    0.0008692300 RMS(Int)=    0.0009226422
 Iter   3:  RMS(Cart)=    0.0001100796 RMS(Int)=    0.0001528222
 Iter   4:  RMS(Cart)=    0.0000143274 RMS(Int)=    0.0000159787
 Iter   5:  RMS(Cart)=    0.0000015545 RMS(Int)=    0.0000021043
 Iter   6:  RMS(Cart)=    0.0000002310 RMS(Int)=    0.0000002766
 Iter   7:  RMS(Cart)=    0.0000000225 RMS(Int)=    0.0000000281
done
Storing new coordinates                 .... done

                                .--------------------.
          ----------------------|Geometry convergence|-------------------------
          Item                value                   Tolerance       Converged
          ---------------------------------------------------------------------
          RMS gradient        0.0147667701            0.0000300000      NO
          MAX gradient        0.0329513242            0.0001000000      NO
          RMS step            0.0948683298            0.0006000000      NO
          MAX step            0.2304488577            0.0010000000      NO
          ........................................................
          Max(Bonds)      0.0072      Max(Angles)   13.20
          Max(Dihed)        0.00      Max(Improp)    0.00
          ---------------------------------------------------------------------

The optimization has not yet converged - more geometry cycles are needed


    ---------------------------------------------------------------------------
                         Redundant Internal Coordinates
                            (Angstroem and degrees)

        Definition                    Value    dE/dq     Step     New-Value
    ----------------------------------------------------------------------------
     1. B(H   1,C   0)                1.0934  0.001218 -0.0013    1.0920   
     2. B(H   2,C   0)                1.0934 -0.005357 -0.0019    1.0915   
     3. B(H   3,C   0)                1.0934  0.002490 -0.0072    1.0861   
     4. B(H   4,C   0)                1.0934  0.002490 -0.0072    1.0861   
     5. A(H   1,C   0,H   3)          109.47  0.000977    0.31    109.78   
     6. A(H   2,C   0,H   3)          100.67 -0.022842    7.73    108.41   
     7. A(H   1,C   0,H   4)          109.47  0.000977    0.31    109.78   
     8. A(H   2,C   0,H   4)          100.67 -0.022842    7.73    108.41   
     9. A(H   3,C   0,H   4)          125.47  0.032951  -13.20    112.26   
    10. A(H   1,C   0,H   2)          109.47  0.002604    0.18    109.65   
    ----------------------------------------------------------------------------

         *************************************************************
         *                GEOMETRY OPTIMIZATION CYCLE   2            *
         *************************************************************
---------------------------------
CARTESIAN COORDINATES (ANGSTROEM)
---------------------------------
  C     -0.001084   -0.000000   -0.057916
  H      1.090269    0.000000   -0.019047
  H     -0.327847   -0.000000   -1.099357
  H     -0.380664   -0.900360    0.416355
  H     -0.380664    0.900360    0.416355

----------------------------
CARTESIAN COORDINATES (A.U.)
----------------------------
  NO LB      ZA    FRAG     MASS         X           Y           Z
   0 C     6.0000    0    12.011   -0.002048   -0.000000   -0.109445
   1 H     1.0000    0     1.008    2.060310    0.000000   -0.035993
   2 H     1.0000    0     1.008   -0.619542   -0.000000   -2.077484
   3 H     1.0000    0     1.008   -0.719351   -1.701434    0.786797
   4 H     1.0000    0     1.008   -0.719351    1.701434    0.786797

--------------------------------
INTERNAL COORDINATES (ANGSTROEM)
--------------------------------
 C      0   0   0     0.000000000000     0.00000000     0.00000000
 H      1   0   0     1.092044997187     0.00000000     0.00000000
 H      1   2   0     1.091500945099   109.45958682     0.00000000
 H      1   2   3     1.086122429784   109.49461359   118.43241037
 H      1   2   3     1.086122440713   109.49459072   241.56760328

---------------------------
INTERNAL COORDINATES (A.U.)
---------------------------
 C      0   0   0     0.000000000000     0.00000000     0.00000000
 H      1   0   0     2.063665970602     0.00000000     0.00000000
 H      1   2   0     2.062637861154   109.45958682     0.00000000
 H      1   2   3     2.052473940201   109.49461359   118.43241037
 H      1   2   3     2.052473960853   109.49459072   241.56760328


Diagonalization of the overlap matrix:
Smallest eigenvalue                        ... 1.517e-02
Time for diagonalization                   ...    0.001 sec
Threshold for overlap eigenvalues          ... 1.000e-08
Number of eigenvalues below threshold      ... 0
Time for construction of square roots      ...    0.000 sec
Total time needed                          ...    0.001 sec

-------------------
DFT GRID GENERATION
-------------------

General Integration Accuracy     IntAcc      ...  7.000
Radial Grid Type                 RadialGrid  ... Gauss-Chebyshev
Angular Grid (max. acc.)         AngularGrid ... Lebedev-434
Angular grid pruning method      GridPruning ... 3 (G Style)
Weight generation scheme         WeightScheme... Becke
Basis function cutoff            BFCut       ...    1.0000e-12
Integration weight cutoff        WCut        ...    1.0000e-14
Grids for H and He will be reduced by one unit

# of grid points (after initial pruning)     ...  64922 (   0.0 sec)
# of grid points (after weights+screening)   ...  63103 (   0.0 sec)
nearest neighbour list constructed           ...    0.0 sec
Grid point re-assignment to atoms done       ...    0.0 sec
Grid point division into batches done        ...    0.8 sec
Reduced shell lists constructed in    1.0 sec

Total number of grid points                  ...    63103
Total number of batches                      ...      987
Average number of points per batch           ...       63
Average number of grid points per atom       ...    12621
Average number of shells per batch           ...    16.72 (83.59%)
Average number of basis functions per batch  ...    38.01 (82.64%)
Average number of large shells per batch     ...    15.56 (93.09%)
Average number of large basis fcns per batch ...    35.30 (92.86%)
Maximum spatial batch extension              ...  19.16, 19.70, 19.56 au
Average spatial batch extension              ...   2.24,  2.23,  2.23 au

Time for grid setup =    1.073 sec

--------------
SCF ITERATIONS
--------------
ITER       Energy         Delta-E        Max-DP      RMS-DP      [F,P]     Damp
               ***  Starting incremental Fock matrix formation  ***
  0    -40.5211337118   0.000000000000 0.00476549  0.00030735  0.0192281 0.7000
                      *** Initiating the SOSCF procedure ***
                      *** Re-Reading the Fockian *** 
                      *** Removing any level shift *** 
ITER      Energy       Delta-E        Grad      Rot      Max-DP    RMS-DP
  1    -40.52161440  -0.0004806904  0.002872  0.002872  0.013669  0.000890
               *** Restarting incremental Fock matrix formation ***
  2    -40.52277985  -0.0011654467  0.002371  0.002628  0.003565  0.000220
  3    -40.52279725  -0.0000174032  0.001080  0.001042  0.002207  0.000103
  4    -40.52280796  -0.0000107078  0.000257  0.000308  0.000375  0.000027
  5    -40.52280840  -0.0000004450  0.000120  0.000104  0.000108  0.000009
  6    -40.52280858  -0.0000001707  0.000004  0.000005  0.000009  0.000000
  7    -40.52280858  -0.0000000002  0.000001  0.000000  0.000001  0.000000
                 **** Energy Check signals convergence ****
              ***Rediagonalizing the Fockian in SOSCF/NRSCF***

               *****************************************************
               *                     SUCCESS                       *
               *           SCF CONVERGED AFTER   8 CYCLES          *
               *****************************************************

Total Energy       :          -40.52280858 Eh           -1102.68168 eV
  Last Energy change         ...   -2.1032e-12  Tolerance :   1.0000e-09
  Last MAX-Density change    ...    9.9387e-08  Tolerance :   1.0000e-08
             **** THE GBW FILE WAS UPDATED (input.gbw) ****
             **** DENSITY FILE WAS UPDATED (input.scfp) ****
             **** ENERGY FILE WAS UPDATED (input.en.tmp) ****
             **** THE GBW FILE WAS UPDATED (input.gbw) ****
             **** DENSITY FILE WAS UPDATED (input.scfp) ****
Total SCF time: 0 days 0 hours 0 min 4 sec 

-------------------------   --------------------
FINAL SINGLE POINT ENERGY       -40.522808575815
-------------------------   --------------------

------------------------------------------------------------------------------
                         ORCA SCF GRADIENT CALCULATION
------------------------------------------------------------------------------

Gradient of the Kohn-Sham DFT energy:
Kohn-Sham wavefunction type      ... RKS
Hartree-Fock exchange scaling    ...    0.200
Number of operators              ...    1
Number of atoms                  ...    5
Basis set dimensions             ...   46
Integral neglect threshold       ... 1.0e-12
Integral primitive cutoff        ... 1.0e-14

Nuclear repulsion gradient       ... done
One Electron Gradient            ... done
Pre-screening matrix             ... done
Starting the two electron gradient:
Two electron gradient done
Exchange-correlation gradient    ... done

------------------
CARTESIAN GRADIENT
------------------

   1   C   :   -0.002807696   -0.000000027    0.007124187
   2   H   :    0.000033681    0.000000021    0.000207573
   3   H   :   -0.001171535   -0.000000001    0.001589132
   4   H   :    0.001972763    0.001074902   -0.004460448
   5   H   :    0.001972786   -0.001074895   -0.004460443

Difference to translation invariance:
           :   -0.0000000000   -0.0000000000   -0.0000000000

Norm of the cartesian gradient     ...    0.0106049465
RMS gradient                       ...    0.0027381854
MAX gradient                       ...    0.0071241866

-------
TIMINGS
-------

Total SCF gradient time            ...        1.326 sec

One electron gradient       ....       0.006 sec  (  0.5%)
Prescreening matrices       ....       0.024 sec  (  1.8%)
Two electron gradient       ....       0.212 sec  ( 16.0%)
XC gradient                 ....       0.930 sec  ( 70.2%)
------------------------------------------------------------------------------
                         ORCA GEOMETRY RELAXATION STEP
------------------------------------------------------------------------------

Reading the OPT-File                    .... done
Getting information on internals        .... done
Copying old internal coords+grads       .... done
Making the new internal coordinates     .... (new redundants).... done
Validating the new internal coordinates .... (new redundants).... done
Calculating the B-matrix                .... done
Calculating the G,G- and P matrices     .... done
Transforming gradient to internals      .... done
Projecting the internal gradient        .... done
Number of atoms                         ....   5
Number of internal coordinates          ....  10
Current Energy                          ....   -40.522808576 Eh
Current gradient norm                   ....     0.010604947 Eh/bohr
Maximum allowed component of the step   ....  0.300
Current trust radius                    ....  0.300
Updating the Hessian (BFGS)             .... done
Forming the augmented Hessian           .... done
Diagonalizing the augmented Hessian     .... done
Last element of RFO vector              ....  0.998424744
Lowest eigenvalues of augmented Hessian:
 -0.000438930  0.104092826  0.113911777  0.133043699  0.134201546
Length of the computed step             ....  0.056195834
The final length of the internal step   ....  0.056195834
Converting the step to cartesian space:
 Initial RMS(Int)=    0.0177706831
Transforming coordinates:
 Iter   0:  RMS(Cart)=    0.0148321280 RMS(Int)=    0.0177694808
 Iter   1:  RMS(Cart)=    0.0002417198 RMS(Int)=    0.0002915334
 Iter   2:  RMS(Cart)=    0.0000037231 RMS(Int)=    0.0000047149
 Iter   3:  RMS(Cart)=    0.0000001247 RMS(Int)=    0.0000001438
 Iter   4:  RMS(Cart)=    0.0000000019 RMS(Int)=    0.0000000026
done
Storing new coordinates                 .... done

                                .--------------------.
          ----------------------|Geometry convergence|-------------------------
          Item                value                   Tolerance       Converged
          ---------------------------------------------------------------------
          Energy change      -0.0078128245            0.0000010000      NO
          RMS gradient        0.0026899515            0.0000300000      NO
          MAX gradient        0.0053535989            0.0001000000      NO
          RMS step            0.0177706831            0.0006000000      NO
          MAX step            0.0455390954            0.0010000000      NO
          ........................................................
          Max(Bonds)      0.0057      Max(Angles)    2.61
          Max(Dihed)        0.00      Max(Improp)    0.00
          ---------------------------------------------------------------------

The optimization has not yet converged - more geometry cycles are needed


    ---------------------------------------------------------------------------
                         Redundant Internal Coordinates
                            (Angstroem and degrees)

        Definition                    Value    dE/dq     Step     New-Value
    ----------------------------------------------------------------------------
     1. B(H   1,C   0)                1.0920  0.000041 -0.0003    1.0917   
     2. B(H   2,C   0)                1.0915 -0.001166  0.0004    1.0919   
     3. B(H   3,C   0)                1.0861 -0.003528  0.0057    1.0919   
     4. B(H   4,C   0)                1.0861 -0.003528  0.0057    1.0919   
     5. A(H   1,C   0,H   3)          109.49 -0.000009    0.20    109.70   
     6. A(H   2,C   0,H   3)          108.18 -0.002938    1.16    109.34   
     7. A(H   1,C   0,H   4)          109.49 -0.000009    0.20    109.70   
     8. A(H   2,C   0,H   4)          108.18 -0.002938    1.16    109.34   
     9. A(H   3,C   0,H   4)          111.99  0.005354   -2.61    109.38   
    10. A(H   1,C   0,H   2)          109.46  0.000416    0.14    109.60   
    ----------------------------------------------------------------------------

         *************************************************************
         *                GEOMETRY OPTIMIZATION CYCLE   3            *
         *************************************************************
---------------------------------
CARTESIAN COORDINATES (ANGSTROEM)
---------------------------------
  C      0.001704   -0.000000   -0.068318
  H      1.092494    0.000001   -0.023823
  H     -0.321706   -0.000000   -1.111190
  H     -0.386242   -0.890766    0.429860
  H     -0.386241    0.890766    0.429860

----------------------------
CARTESIAN COORDINATES (A.U.)
----------------------------
  NO LB      ZA    FRAG     MASS         X           Y           Z
   0 C     6.0000    0    12.011    0.003220   -0.000001   -0.129102
   1 H     1.0000    0     1.008    2.064515    0.000001   -0.045019
   2 H     1.0000    0     1.008   -0.607936   -0.000000   -2.099844
   3 H     1.0000    0     1.008   -0.729891   -1.683305    0.812318
   4 H     1.0000    0     1.008   -0.729889    1.683304    0.812319

--------------------------------
INTERNAL COORDINATES (ANGSTROEM)
--------------------------------
 C      0   0   0     0.000000000000     0.00000000     0.00000000
 H      1   0   0     1.091697567078     0.00000000     0.00000000
 H      1   2   0     1.091867798590   109.56532464     0.00000000
 H      1   2   3     1.091855301526   109.65877836   119.96586036
 H      1   2   3     1.091855358288   109.65864604   240.03420327

---------------------------
INTERNAL COORDINATES (A.U.)
---------------------------
 C      0   0   0     0.000000000000     0.00000000     0.00000000
 H      1   0   0     2.063009422845     0.00000000     0.00000000
 H      1   2   0     2.063331113782   109.56532464     0.00000000
 H      1   2   3     2.063307497754   109.65877836   119.96586036
 H      1   2   3     2.063307605018   109.65864604   240.03420327


Diagonalization of the overlap matrix:
Smallest eigenvalue                        ... 1.530e-02
Time for diagonalization                   ...    0.001 sec
Threshold for overlap eigenvalues          ... 1.000e-08
Number of eigenvalues below threshold      ... 0
Time for construction of square roots      ...    0.000 sec
Total time needed                          ...    0.001 sec

-------------------
DFT GRID GENERATION
-------------------

General Integration Accuracy     IntAcc      ...  7.000
Radial Grid Type                 RadialGrid  ... Gauss-Chebyshev
Angular Grid (max. acc.)         AngularGrid ... Lebedev-434
Angular grid pruning method      GridPruning ... 3 (G Style)
Weight generation scheme         WeightScheme... Becke
Basis function cutoff            BFCut       ...    1.0000e-12
Integration weight cutoff        WCut        ...    1.0000e-14
Grids for H and He will be reduced by one unit

# of grid points (after initial pruning)     ...  64922 (   0.0 sec)
# of grid points (after weights+screening)   ...  63121 (   0.0 sec)
nearest neighbour list constructed           ...    0.0 sec
Grid point re-assignment to atoms done       ...    0.0 sec
Grid point division into batches done        ...    0.7 sec
Reduced shell lists constructed in    0.9 sec

Total number of grid points                  ...    63121
Total number of batches                      ...      989
Average number of points per batch           ...       63
Average number of grid points per atom       ...    12624
Average number of shells per batch           ...    16.72 (83.59%)
Average number of basis functions per batch  ...    37.99 (82.59%)
Average number of large shells per batch     ...    15.56 (93.09%)
Average number of large basis fcns per batch ...    35.28 (92.87%)
Maximum spatial batch extension              ...  19.70, 19.70, 19.56 au
Average spatial batch extension              ...   2.25,  2.22,  2.22 au

Time for grid setup =    0.911 sec

--------------
SCF ITERATIONS
--------------
ITER       Energy         Delta-E        Max-DP      RMS-DP      [F,P]     Damp
               ***  Starting incremental Fock matrix formation  ***
                      *** Initiating the SOSCF procedure ***
                      *** Re-Reading the Fockian *** 
                      *** Removing any level shift *** 
ITER      Energy       Delta-E        Grad      Rot      Max-DP    RMS-DP
  0    -40.52296567 -40.5229656739  0.002813  0.002813  0.003524  0.000207
               *** Restarting incremental Fock matrix formation ***
  1    -40.52302412  -0.0000584488  0.000663  0.000741  0.001556  0.000084
  2    -40.52302733  -0.0000032037  0.000292  0.000398  0.000906  0.000038
  3    -40.52302804  -0.0000007173  0.000183  0.000176  0.000315  0.000015
  4    -40.52302820  -0.0000001573  0.000013  0.000013  0.000011  0.000001
  5    -40.52302820  -0.0000000009  0.000004  0.000003  0.000003  0.000000
                  ***Gradient check signals convergence***
              ***Rediagonalizing the Fockian in SOSCF/NRSCF***

               *****************************************************
               *                     SUCCESS                       *
               *           SCF CONVERGED AFTER   6 CYCLES          *
               *****************************************************

Total Energy       :          -40.52302820 Eh           -1102.68766 eV
  Last Energy change         ...   -1.3788e-10  Tolerance :   1.0000e-09
  Last MAX-Density change    ...    6.6140e-07  Tolerance :   1.0000e-08
             **** THE GBW FILE WAS UPDATED (input.gbw) ****
             **** DENSITY FILE WAS UPDATED (input.scfp) ****
             **** ENERGY FILE WAS UPDATED (input.en.tmp) ****
             **** THE GBW FILE WAS UPDATED (input.gbw) ****
             **** DENSITY FILE WAS UPDATED (input.scfp) ****
Total SCF time: 0 days 0 hours 0 min 3 sec 

-------------------------   --------------------
FINAL SINGLE POINT ENERGY       -40.523028202138
-------------------------   --------------------

------------------------------------------------------------------------------
                         ORCA SCF GRADIENT CALCULATION
------------------------------------------------------------------------------

Gradient of the Kohn-Sham DFT energy:
Kohn-Sham wavefunction type      ... RKS
Hartree-Fock exchange scaling    ...    0.200
Number of operators              ...    1
Number of atoms                  ...    5
Basis set dimensions             ...   46
Integral neglect threshold       ... 1.0e-12
Integral primitive cutoff        ... 1.0e-14

Nuclear repulsion gradient       ... done
One Electron Gradient            ... done
Pre-screening matrix             ... done
Starting the two electron gradient:
Two electron gradient done
Exchange-correlation gradient    ... done

------------------
CARTESIAN GRADIENT
------------------

   1   C   :    0.000813384   -0.000000140    0.000183044
   2   H   :   -0.000009478    0.000000123   -0.000099155
   3   H   :   -0.000218979   -0.000000019    0.000199141
   4   H   :   -0.000292534    0.000162066   -0.000141539
   5   H   :   -0.000292392   -0.000162030   -0.000141491

Difference to translation invariance:
           :   -0.0000000000   -0.0000000000   -0.0000000000

Norm of the cartesian gradient     ...    0.0010277502
RMS gradient                       ...    0.0002653640
MAX gradient                       ...    0.0008133838

-------
TIMINGS
-------

Total SCF gradient time            ...        1.080 sec

One electron gradient       ....       0.004 sec  (  0.4%)
Prescreening matrices       ....       0.017 sec  (  1.6%)
Two electron gradient       ....       0.150 sec  ( 13.9%)
XC gradient                 ....       0.806 sec  ( 74.6%)
------------------------------------------------------------------------------
                         ORCA GEOMETRY RELAXATION STEP
------------------------------------------------------------------------------

Reading the OPT-File                    .... done
Getting information on internals        .... done
Copying old internal coords+grads       .... done
Making the new internal coordinates     .... (new redundants).... done
Validating the new internal coordinates .... (new redundants).... done
Calculating the B-matrix                .... done
Calculating the G,G- and P matrices     .... done
Transforming gradient to internals      .... done
Projecting the internal gradient        .... done
Number of atoms                         ....   5
Number of internal coordinates          ....  10
Current Energy                          ....   -40.523028202 Eh
Current gradient norm                   ....     0.001027750 Eh/bohr
Maximum allowed component of the step   ....  0.300
Current trust radius                    ....  0.300
Updating the Hessian (BFGS)             .... done
Forming the augmented Hessian           .... done
Diagonalizing the augmented Hessian     .... done
Last element of RFO vector              ....  0.999975381
Lowest eigenvalues of augmented Hessian:
 -0.000005876  0.113911760  0.114966499  0.124871611  0.134201541
Length of the computed step             ....  0.007017113
The final length of the internal step   ....  0.007017113
Converting the step to cartesian space:
 Initial RMS(Int)=    0.0022190059
Transforming coordinates:
 Iter   0:  RMS(Cart)=    0.0017745490 RMS(Int)=    0.0022144725
 Iter   1:  RMS(Cart)=    0.0000039396 RMS(Int)=    0.0000057331
 Iter   2:  RMS(Cart)=    0.0000000107 RMS(Int)=    0.0000000143
done
Storing new coordinates                 .... done

                                .--------------------.
          ----------------------|Geometry convergence|-------------------------
          Item                value                   Tolerance       Converged
          ---------------------------------------------------------------------
          Energy change      -0.0002196263            0.0000010000      NO
          RMS gradient        0.0002692416            0.0000300000      NO
[...]
Total time needed                          ...    0.000 sec

-------------------
DFT GRID GENERATION
-------------------

General Integration Accuracy     IntAcc      ...  7.000
Radial Grid Type                 RadialGrid  ... Gauss-Chebyshev
Angular Grid (max. acc.)         AngularGrid ... Lebedev-110
Angular grid pruning method      GridPruning ... 3 (G Style)
Weight generation scheme         WeightScheme... Becke
Basis function cutoff            BFCut       ...    1.0000e-12
Integration weight cutoff        WCut        ...    1.0000e-14
Grids for H and He will be reduced by one unit

# of grid points (after initial pruning)     ...   1840 (   0.0 sec)
# of grid points (after weights+screening)   ...   1840 (   0.0 sec)
Grid point division into batches done        ...    0.0 sec
Reduced shell lists constructed in    0.0 sec

Total number of grid points                  ...     1840
Total number of batches                      ...       29
Average number of points per batch           ...       63
Average number of grid points per atom       ...     1840
Average number of shells per batch           ...     6.63 (94.76%)
Average number of basis functions per batch  ...    14.37 (95.78%)
Average number of large shells per batch     ...     6.47 (97.49%)
Average number of large basis fcns per batch ...    14.00 (97.45%)
Average number of aux-shells per batch       ...     6.63 (110.56%)
Average number of aux functions per batch    ...    14.37 (79.81%)
Maximum spatial batch extension              ...  18.53, 28.34, 28.34 au
Average spatial batch extension              ...   7.21,  8.13,  8.85 au

Time for grid setup =    0.006 sec

------------------------------
INITIAL GUESS: MODEL POTENTIAL
------------------------------
Loading Hartree-Fock densities                     ... done
Calculating cut-offs                               ... done
Setting up the integral package                    ... done
Initializing the effective Hamiltonian             ... done
Starting the Coulomb interaction                   ... done (   0.0 sec)
Reading the grid                                   ... done
Mapping shells                                     ... done
Starting the XC term evaluation                    ... done (   0.0 sec)
Transforming the Hamiltonian                       ... done (   0.0 sec)
Diagonalizing the Hamiltonian                      ... done (   0.0 sec)
Back transforming the eigenvectors                 ... done (   0.0 sec)
Now organizing SCF variables                       ... done
                      ------------------
                      INITIAL GUESS DONE (   0.1 sec)
                      ------------------
--------------
SCF ITERATIONS
--------------
ITER       Energy         Delta-E        Max-DP      RMS-DP      [F,P]     Damp
  0     -0.4948799739   0.000000000000 0.01639396  0.00095111  0.0453832 0.7000
  1     -0.5010199355  -0.006139961525 0.02087923  0.00126359  0.0552494 0.7000
                               ***Turning on DIIS***
  2     -0.5038436867  -0.002823751230 0.06590181  0.00413477  0.0521716 0.0000
  3     -0.5001312447   0.003712442019 0.00860284  0.00046779  0.0036782 0.0000
  4     -0.4998625404   0.000268704325 0.00555568  0.00030614  0.0009070 0.0000
  5     -0.4999037207  -0.000041180350 0.00063907  0.00003888  0.0002794 0.0000
  6     -0.4999229949  -0.000019274175 0.00011351  0.00000818  0.0001204 0.0000
  7     -0.4999455377  -0.000022542775 0.00011371  0.00000852  0.0000643 0.0000
  8     -0.4999455682  -0.000000030528 0.00000148  0.00000013  0.0000015 0.0000
                 **** Energy Check signals convergence ****

               *****************************************************
               *                     SUCCESS                       *
               *           SCF CONVERGED AFTER   9 CYCLES          *
               *****************************************************


----------------
TOTAL SCF ENERGY
----------------

Total Energy       :           -0.49994557 Eh             -13.60421 eV

Components:
Nuclear Repulsion  :            0.00000000 Eh               0.00000 eV
Electronic Energy  :           -0.49994557 Eh             -13.60421 eV
One Electron Energy:           -0.49994557 Eh             -13.60421 eV
Two Electron Energy:            0.00000000 Eh               0.00000 eV

Virial components:
Potential Energy   :           -0.99989038 Eh             -27.20840 eV
Kinetic Energy     :            0.49994481 Eh              13.60419 eV
Virial Ratio       :            2.00000152


---------------
SCF CONVERGENCE
---------------

  Last Energy change         ...   -3.6394e-10  Tolerance :   1.0000e-09
  Last MAX-Density change    ...    6.3854e-07  Tolerance :   1.0000e-08
  Last RMS-Density change    ...    3.4427e-08  Tolerance :   1.0000e-09
  Last DIIS Error            ...    7.9859e-08  Tolerance :   1.0000e-08

             **** THE GBW FILE WAS UPDATED (input.gbw) ****
             **** DENSITY FILE WAS UPDATED (input.scfp) ****
             **** ENERGY FILE WAS UPDATED (input.en.tmp) ****
----------------------
UHF SPIN CONTAMINATION
----------------------

Expectation value of <S**2>     :     0.750000
Ideal value S*(S+1) for S=0.5   :     0.750000
Deviation                       :     0.000000

             **** THE GBW FILE WAS UPDATED (input.gbw) ****
             **** DENSITY FILE WAS UPDATED (input.scfp) ****
----------------
ORBITAL ENERGIES
----------------
                 SPIN UP ORBITALS
  NO   OCC          E(Eh)            E(eV) 
   0   1.0000      -0.499946       -13.6042 
   1   0.0000       0.271968         7.4006 
   2   0.0000       0.738492        20.0954 
   3   0.0000       0.738492        20.0954 
   4   0.0000       0.738492        20.0954 
   5   0.0000       1.503466        40.9114 
   6   0.0000       3.434137        93.4476 
   7   0.0000       3.434137        93.4476 
   8   0.0000       3.434137        93.4476 
   9   0.0000       3.434137        93.4476 
  10   0.0000       3.434137        93.4476 
  11   0.0000       3.848082       104.7116 
  12   0.0000       3.848082       104.7116 
  13   0.0000       3.848082       104.7116 
  14   0.0000       7.368640       200.5109 

                 SPIN DOWN ORBITALS
  NO   OCC          E(Eh)            E(eV) 
   0   0.0000       0.048854         1.3294 
   1   0.0000       0.391429        10.6513 
   2   0.0000       0.834246        22.7010 
   3   0.0000       0.834246        22.7010 
   4   0.0000       0.834246        22.7010 
   5   0.0000       1.613881        43.9159 
   6   0.0000       3.484968        94.8308 
   7   0.0000       3.484968        94.8308 
   8   0.0000       3.484968        94.8308 
   9   0.0000       3.484968        94.8308 
  10   0.0000       3.484968        94.8308 
  11   0.0000       3.934037       107.0506 
  12   0.0000       3.934037       107.0506 
  13   0.0000       3.934037       107.0506 
  14   0.0000       7.383284       200.9094 

                    ********************************
                    * MULLIKEN POPULATION ANALYSIS *
                    ********************************

--------------------------------------------
MULLIKEN ATOMIC CHARGES AND SPIN POPULATIONS
--------------------------------------------
   0 H :    0.000000    1.000000
Sum of atomic charges         :    0.0000000
Sum of atomic spin populations:    1.0000000

-----------------------------------------------------
MULLIKEN REDUCED ORBITAL CHARGES AND SPIN POPULATIONS
-----------------------------------------------------
CHARGE
  0 H s       :     1.000000  s :     1.000000
      pz      :     0.000000  p :     0.000000
      px      :     0.000000
      py      :     0.000000
      dz2     :     0.000000  d :     0.000000
      dxz     :     0.000000
      dyz     :     0.000000
      dx2y2   :     0.000000
      dxy     :     0.000000

SPIN
  0 H s       :     1.000000  s :     1.000000
      pz      :     0.000000  p :     0.000000
      px      :     0.000000
      py      :     0.000000
      dz2     :     0.000000  d :     0.000000
      dxz     :     0.000000
      dyz     :     0.000000
      dx2y2   :     0.000000
      dxy     :     0.000000


                     *******************************
                     * LOEWDIN POPULATION ANALYSIS *
                     *******************************

-------------------------------------------
LOEWDIN ATOMIC CHARGES AND SPIN POPULATIONS
-------------------------------------------
   0 H :    0.000000    1.000000

----------------------------------------------------
LOEWDIN REDUCED ORBITAL CHARGES AND SPIN POPULATIONS
----------------------------------------------------
CHARGE
  0 H s       :     1.000000  s :     1.000000
      pz      :     0.000000  p :     0.000000
      px      :     0.000000
      py      :     0.000000
      dz2     :     0.000000  d :     0.000000
      dxz     :     0.000000
      dyz     :     0.000000
      dx2y2   :     0.000000
      dxy     :     0.000000

SPIN
  0 H s       :     1.000000  s :     1.000000
      pz      :     0.000000  p :     0.000000
      px      :     0.000000
      py      :     0.000000
      dz2     :     0.000000  d :     0.000000
      dxz     :     0.000000
      dyz     :     0.000000
      dx2y2   :     0.000000
      dxy     :     0.000000


                      *****************************
                      * MAYER POPULATION ANALYSIS *
                      *****************************

  NA   - Mulliken gross atomic population
  ZA   - Total nuclear charge
  QA   - Mulliken gross atomic charge
  VA   - Mayer's total valence
  BVA  - Mayer's bonded valence
  FA   - Mayer's free valence

  ATOM       NA         ZA         QA         VA         BVA        FA
  0 H      1.0000     1.0000     0.0000     1.0000     0.0000     1.0000

  Mayer bond orders larger than 0.100000


Local spin analysis not attempted because no beta electrons available
--------------------------
ATOM BASIS FOR ELEMENT H 
--------------------------
 NewGTO H 
 S 6
    1         82.640000000000         0.002006028615
    2         12.410000000000         0.015343217556
    3          2.824000000000         0.075580070750
    4          0.797700000000         0.256873865314
    5          0.258100000000         0.497369423285
    6          0.089890000000         0.296132209824
 S 6
    1         82.640000000000         0.001843322367
    2         12.410000000000         0.014098750085
    3          2.824000000000         0.069449874191
    4          0.797700000000        -0.051928440497
    5          0.258100000000         1.493791603371
    6          0.089890000000        -1.735339362454
 S 6
    1         82.640000000000         0.000379989674
    2         12.410000000000         0.002906371423
    3          2.824000000000         0.014316668391
    4          0.797700000000         1.895737040871
    5          0.258100000000        -2.601852953994
    6          0.089890000000         1.091202692297
 S 6
    1         82.640000000000         0.037432149104
    2         12.410000000000         0.286301802012
    3          2.824000000000         1.410311127569
    4          0.797700000000        -2.132295774583
    5          0.258100000000         1.420452204994
    6          0.089890000000        -0.489249223012
 P 2
    1          1.407000000000        -0.092513282568
    2          0.388000000000         1.054223849532
 P 2
    1          1.407000000000         1.264712212979
    2          0.388000000000        -0.704746595726
 D 1
    1          1.057000000000         1.000000000000
 end
  // -----------------------------------------------
  // The basis set
  // -----------------------------------------------
  BAS[ATNO] = new BFNGauss[NSH];
  // Basis function   1 L = s
  InitBFNGauss(BAS[ATNO][  0]);
  BAS[ATNO][  0].l  = 0;
  BAS[ATNO][  0].ng = 6;
  BAS[ATNO][  0].a[  0] =        82.640000000000;     BAS[ATNO][  0].d[  0] =         0.002006028615;
  BAS[ATNO][  0].a[  1] =        12.410000000000;     BAS[ATNO][  0].d[  1] =         0.015343217556;
  BAS[ATNO][  0].a[  2] =         2.824000000000;     BAS[ATNO][  0].d[  2] =         0.075580070750;
  BAS[ATNO][  0].a[  3] =         0.797700000000;     BAS[ATNO][  0].d[  3] =         0.256873865314;
  BAS[ATNO][  0].a[  4] =         0.258100000000;     BAS[ATNO][  0].d[  4] =         0.497369423285;
  BAS[ATNO][  0].a[  5] =         0.089890000000;     BAS[ATNO][  0].d[  5] =         0.296132209824;

  // Basis function   2 L = s
  InitBFNGauss(BAS[ATNO][  1]);
  BAS[ATNO][  1].l  = 0;
  BAS[ATNO][  1].ng = 6;
  BAS[ATNO][  1].a[  0] =        82.640000000000;     BAS[ATNO][  1].d[  0] =        -0.001843322367;
  BAS[ATNO][  1].a[  1] =        12.410000000000;     BAS[ATNO][  1].d[  1] =        -0.014098750085;
  BAS[ATNO][  1].a[  2] =         2.824000000000;     BAS[ATNO][  1].d[  2] =        -0.069449874191;
  BAS[ATNO][  1].a[  3] =         0.797700000000;     BAS[ATNO][  1].d[  3] =         0.051928440497;
  BAS[ATNO][  1].a[  4] =         0.258100000000;     BAS[ATNO][  1].d[  4] =        -1.493791603371;
  BAS[ATNO][  1].a[  5] =         0.089890000000;     BAS[ATNO][  1].d[  5] =         1.735339362454;

  // Basis function   3 L = s
  InitBFNGauss(BAS[ATNO][  2]);
  BAS[ATNO][  2].l  = 0;
  BAS[ATNO][  2].ng = 6;
  BAS[ATNO][  2].a[  0] =        82.640000000000;     BAS[ATNO][  2].d[  0] =        -0.000379989674;
  BAS[ATNO][  2].a[  1] =        12.410000000000;     BAS[ATNO][  2].d[  1] =        -0.002906371423;
  BAS[ATNO][  2].a[  2] =         2.824000000000;     BAS[ATNO][  2].d[  2] =        -0.014316668391;
  BAS[ATNO][  2].a[  3] =         0.797700000000;     BAS[ATNO][  2].d[  3] =        -1.895737040871;
  BAS[ATNO][  2].a[  4] =         0.258100000000;     BAS[ATNO][  2].d[  4] =         2.601852953994;
  BAS[ATNO][  2].a[  5] =         0.089890000000;     BAS[ATNO][  2].d[  5] =        -1.091202692297;

  // Basis function   4 L = s
  InitBFNGauss(BAS[ATNO][  3]);
  BAS[ATNO][  3].l  = 0;
  BAS[ATNO][  3].ng = 6;
  BAS[ATNO][  3].a[  0] =        82.640000000000;     BAS[ATNO][  3].d[  0] =        -0.037432149104;
  BAS[ATNO][  3].a[  1] =        12.410000000000;     BAS[ATNO][  3].d[  1] =        -0.286301802012;
  BAS[ATNO][  3].a[  2] =         2.824000000000;     BAS[ATNO][  3].d[  2] =        -1.410311127569;
  BAS[ATNO][  3].a[  3] =         0.797700000000;     BAS[ATNO][  3].d[  3] =         2.132295774583;
  BAS[ATNO][  3].a[  4] =         0.258100000000;     BAS[ATNO][  3].d[  4] =        -1.420452204994;
  BAS[ATNO][  3].a[  5] =         0.089890000000;     BAS[ATNO][  3].d[  5] =         0.489249223012;

  // Basis function   5 L = p
  InitBFNGauss(BAS[ATNO][  4]);
  BAS[ATNO][  4].l  = 1;
  BAS[ATNO][  4].ng = 2;
  BAS[ATNO][  4].a[  0] =         1.407000000000;     BAS[ATNO][  4].d[  0] =        -0.092513282568;
  BAS[ATNO][  4].a[  1] =         0.388000000000;     BAS[ATNO][  4].d[  1] =         1.054223849532;

  // Basis function   6 L = p
  InitBFNGauss(BAS[ATNO][  5]);
  BAS[ATNO][  5].l  = 1;
  BAS[ATNO][  5].ng = 2;
  BAS[ATNO][  5].a[  0] =         1.407000000000;     BAS[ATNO][  5].d[  0] =         1.264712212979;
  BAS[ATNO][  5].a[  1] =         0.388000000000;     BAS[ATNO][  5].d[  1] =        -0.704746595726;

  // Basis function   7 L = d
  InitBFNGauss(BAS[ATNO][  6]);
  BAS[ATNO][  6].l  = 2;
  BAS[ATNO][  6].ng = 1;
  BAS[ATNO][  6].a[  0] =         1.057000000000;     BAS[ATNO][  6].d[  0] =         1.000000000000;

-------------------------------------------
RADIAL EXPECTATION VALUES <R**-3> TO <R**3>
-------------------------------------------
   0 :     0.000000     1.994557     0.999890     1.499668     2.996607     7.471836
   1 :     0.000000     0.727937     0.468486     3.386657    13.291302    56.035740
   2 :     0.000000     2.699541     1.079495     1.814110     5.051844    18.223998
   3 :     0.000000    23.340023     3.178983     0.779378     1.356907     3.956957
   4 :     0.384905     0.447478     0.626391     1.771123     3.421049     7.121244
   5 :     0.384905     0.447478     0.626391     1.771123     3.421049     7.121244
   6 :     0.384905     0.447478     0.626391     1.771123     3.421049     7.121244
   7 :     3.952143     1.945855     1.242764     1.051867     1.494415     2.751440
   8 :     3.952143     1.945855     1.242764     1.051867     1.494415     2.751440
   9 :     3.952143     1.945855     1.242764     1.051867     1.494415     2.751440
  10 :     0.924871     0.845600     0.874996     1.241717     1.655629    11.747557
  11 :     0.924871     0.845600     0.874996     1.241717     1.655629    11.747557
  12 :     0.924871     0.845600     0.874996     1.241717     1.655629    11.747557
  13 :     0.924871     0.845600     0.874996     1.241717     1.655629    11.747557
  14 :     0.924871     0.845600     0.874996     1.241717     1.655629    11.747557
-------
TIMINGS
-------

Total SCF time: 0 days 0 hours 0 min 0 sec 

Total time                  ....       0.759 sec
Sum of individual times     ....       0.694 sec  ( 91.3%)

Fock matrix formation       ....       0.609 sec  ( 80.3%)
Diagonalization             ....       0.001 sec  (  0.2%)
Density matrix formation    ....       0.000 sec  (  0.0%)
Population analysis         ....       0.002 sec  (  0.3%)
Initial guess               ....       0.074 sec  (  9.8%)
Orbital Transformation      ....       0.000 sec  (  0.0%)
Orbital Orthonormalization  ....       0.000 sec  (  0.0%)
DIIS solution               ....       0.001 sec  (  0.1%)

-------------------------   --------------------
FINAL SINGLE POINT ENERGY        -0.499945568551
-------------------------   --------------------


                            ***************************************
                            *     ORCA property calculations      *
                            ***************************************

                                    ---------------------
                                    Active property flags
                                    ---------------------
   (+) Dipole Moment


------------------------------------------------------------------------------
                       ORCA ELECTRIC PROPERTIES CALCULATION
------------------------------------------------------------------------------

Dipole Moment Calculation                       ... on
Quadrupole Moment Calculation                   ... off
Polarizability Calculation                      ... off
GBWName                                         ... input.gbw
Electron density file                           ... input.scfp
The origin for moment calculation is the CENTER OF MASS  = ( 0.000000,  0.000000  0.000000)

-------------
DIPOLE MOMENT
-------------
                                X             Y             Z
Electronic contribution:      0.00000       0.00000      -0.00000
Nuclear contribution   :      0.00000       0.00000       0.00000
                        -----------------------------------------
Total Dipole Moment    :      0.00000       0.00000      -0.00000
                        -----------------------------------------
Magnitude (a.u.)       :      0.00000
Magnitude (Debye)      :      0.00000



--------------------
Rotational spectrum 
--------------------
 
Rotational constants in cm-1:     0.000000     0.000000     0.000000 
Rotational constants in MHz :     0.000000     0.000000     0.000000 

 Dipole components along the rotational axes: 
x,y,z [a.u.] :     0.000000     0.000000    -0.000000 
x,y,z [Debye]:     0.000000     0.000000    -0.000000 

 

Timings for individual modules:

Sum of individual times         ...        0.934 sec (=   0.016 min)
GTO integral calculation        ...        0.154 sec (=   0.003 min)  16.5 %
SCF iterations                  ...        0.780 sec (=   0.013 min)  83.5 %
                             ****ORCA TERMINATED NORMALLY****
TOTAL RUN TIME: 0 days 0 hours 0 minutes 1 seconds 120 msec
