
                                 *****************
                                 * O   R   C   A *
                                 *****************

           --- An Ab Initio, DFT and Semiempirical electronic structure package ---

                  #######################################################
                  #                        -***-                        #
                  #          Department of theory and spectroscopy      #
                  #               Directorship: Frank Neese             #
                  #        Max Planck Institute fuer Kohlenforschung    #
                  #                Kaiser Wilhelm Platz 1               #
                  #                 D-45470 Muelheim/Ruhr               #
                  #                      Germany                        #
                  #                                                     #
                  #                  All rights reserved                #
                  #                        -***-                        #
                  #######################################################


                         Program Version 4.2.0 -  RELEASE  -


 With contributions from (in alphabetic order):
   Daniel Aravena         : Magnetic Suceptibility
   Michael Atanasov       : Ab Initio Ligand Field Theory (pilot matlab implementation)
   Alexander A. Auer      : GIAO ZORA, VPT2
   Ute Becker             : Parallelization
   Giovanni Bistoni       : ED, misc. LED, open-shell LED, HFLED
   Martin Brehm           : Molecular dynamics
   Dmytro Bykov           : SCF Hessian
   Vijay G. Chilkuri      : MRCI spin determinant printing, contributions to CSF-ICE
   Dipayan Datta          : RHF DLPNO-CCSD density
   Achintya Kumar Dutta   : EOM-CC, STEOM-CC
   Dmitry Ganyushin       : Spin-Orbit,Spin-Spin,Magnetic field MRCI
   Miquel Garcia          : C-PCM Hessian, Gaussian charge scheme
   Yang Guo               : DLPNO-NEVPT2, CIM, IAO-localization
   Andreas Hansen         : Spin unrestricted coupled pair/coupled cluster methods
   Benjamin Helmich-Paris : CASSCF linear response (MC-RPA)
   Lee Huntington         : MR-EOM, pCC
   Robert Izsak           : Overlap fitted RIJCOSX, COSX-SCS-MP3, EOM
   Christian Kollmar      : KDIIS, OOCD, Brueckner-CCSD(T), CCSD density
   Simone Kossmann        : Meta GGA functionals, TD-DFT gradient, OOMP2, MP2 Hessian
   Martin Krupicka        : AUTO-CI
   Lucas Lang             : DCDCAS
   Dagmar Lenk            : GEPOL surface, SMD
   Dimitrios Liakos       : Extrapolation schemes; Compound Job, initial MDCI parallelization
   Dimitrios Manganas     : Further ROCIS development; embedding schemes
   Dimitrios Pantazis     : SARC Basis sets
   Taras Petrenko         : DFT Hessian,TD-DFT gradient, ASA, ECA, R-Raman, ABS, FL, XAS/XES, NRVS
   Peter Pinski           : DLPNO-MP2, DLPNO-MP2 Gradient
   Christoph Reimann      : Effective Core Potentials
   Marius Retegan         : Local ZFS, SOC
   Christoph Riplinger    : Optimizer, TS searches, QM/MM, DLPNO-CCSD(T), (RO)-DLPNO pert. Triples
   Tobias Risthaus        : Range-separated hybrids, TD-DFT gradient, RPA, STAB
   Michael Roemelt        : Original ROCIS implementation
   Masaaki Saitow         : Open-shell DLPNO-CCSD energy and density
   Barbara Sandhoefer     : DKH picture change effects
   Avijit Sen             : IP-ROCIS
   Kantharuban Sivalingam : CASSCF convergence, NEVPT2, FIC-MRCI
   Bernardo de Souza      : ESD, SOC TD-DFT
   Georgi Stoychev        : AutoAux, RI-MP2 NMR
   Willem Van den Heuvel  : Paramagnetic NMR
   Boris Wezisla          : Elementary symmetry handling
   Frank Wennmohs         : Technical directorship


 We gratefully acknowledge several colleagues who have allowed us to
 interface, adapt or use parts of their codes:
   Stefan Grimme, W. Hujo, H. Kruse,             : VdW corrections, initial TS optimization,
                  C. Bannwarth                     DFT functionals, gCP, sTDA/sTD-DF
   Ed Valeev, F. Pavosevic, A. Kumar             : LibInt (2-el integral package), F12 methods
   Garnet Chan, S. Sharma, J. Yang, R. Olivares  : DMRG
   Ulf Ekstrom                                   : XCFun DFT Library
   Mihaly Kallay                                 : mrcc  (arbitrary order and MRCC methods)
   Andreas Klamt, Michael Diedenhofen            : otool_cosmo (COSMO solvation model)
   Jiri Pittner, Ondrej Demel                    : Mk-CCSD
   Frank Weinhold                                : gennbo (NPA and NBO analysis)
   Christopher J. Cramer and Donald G. Truhlar   : smd solvation model
   Lars Goerigk                                  : TD-DFT with DH, B97 family of functionals
   V. Asgeirsson, H. Jonsson                     : NEB implementation
   FAccTs GmbH                                   : IRC, NEB, NEB-TS, Multilevel, MM, QM/MM, CI optimization
   S Lehtola, MJT Oliveira, MAL Marques          : LibXC Library


 Your calculation uses the libint2 library for the computation of 2-el integrals
 For citations please refer to: http://libint.valeyev.net

 Your ORCA version has been built with support for libXC version: 4.2.3
 For citations please refer to: https://tddft.org/programs/libxc/

 This ORCA versions uses:
   CBLAS   interface :  Fast vector & matrix operations
   LAPACKE interface :  Fast linear algebra routines
   SCALAPACK package :  Parallel linear algebra routines


Setting NCore(Cl) from 10 to 10
----- Orbital basis set information -----
Your calculation utilizes the basis: def2-SVP
   F. Weigend and R. Ahlrichs, Phys. Chem. Chem. Phys. 7, 3297 (2005).

================================================================================
                                        WARNINGS
                       Please study these warnings very carefully!
================================================================================


WARNING: your system is open-shell and RHF/RKS was chosen
  ===> : WILL SWITCH to UHF/UKS


WARNING: MDCI localization with Augmented Hessian Foster-Boys
  ===> : Switching off randomization!

WARNING: Post HF methods need fully converged wavefunctions
  ===> : Setting SCFConvForced true
         You can overwrite this default with %scf ConvForced false 


INFO   : the flag for use of LIBINT has been found!

================================================================================
                                       INPUT FILE
================================================================================
NAME = input.com
|  1> ! CCSD(T)   
|  2> *xyz  0 2
|  3>  Cl     0.00000000     0.00000000     0.00000000
|  4> *
|  5> %MaxCore  8000
|  6> %scf
|  7>    MaxIter 500 
|  8>    Convergence  VeryTight
|  9> end
| 10> %pal nprocs  1 
| 11> end
| 12> %method
| 13>   IntAcc 7.0
| 14>   NewNCore Cl  10  end
| 15> end
| 16> %basis 
| 17>    NewGTO   Cl
| 18>    S  6
| 19>        1           25180.10000000               0.00183296
| 20>        2            3780.35000000               0.01403420
| 21>        3             860.47400000               0.06909739
| 22>        4             242.14500000               0.23745198
| 23>        5              77.33490000               0.48303396
| 24>        6              26.24700000               0.33985597
| 25>    S  6
| 26>        1             491.76500000              -0.00229739
| 27>        2             116.98400000              -0.03071372
| 28>        3              37.41530000              -0.11252807
| 29>        4              13.78340000               0.04501633
| 30>        5               5.45215000               0.58935336
| 31>        6               2.22588000               0.46520629
| 32>    P  6
| 33>        1             491.76500000               0.00398940
| 34>        2             116.98400000               0.03031771
| 35>        3              37.41530000               0.12988003
| 36>        4              13.78340000               0.32795107
| 37>        5               5.45215000               0.45352710
| 38>        6               2.22588000               0.25215406
| 39>    S  3
| 40>        1               3.18649000              -0.25182803
| 41>        2               1.14427000               0.06158925
| 42>        3               0.42037700               1.06018433
| 43>    P  3
| 44>        1               3.18649000              -0.01429931
| 45>        2               1.14427000               0.32357233
| 46>        3               0.42037700               0.74350777
| 47>    S  1
| 48>        1               0.14265700               1.00000000
| 49>    P  1
| 50>        1               0.14265700               1.00000000
| 51>    D  1
| 52>        1               0.75000000               1.00000000
| 53>    end
| 54> end
| 55> 
| 56>                          ****END OF INPUT****
================================================================================

                       ****************************
                       * Single Point Calculation *
                       ****************************

---------------------------------
CARTESIAN COORDINATES (ANGSTROEM)
---------------------------------
  Cl     0.000000    0.000000    0.000000

----------------------------
CARTESIAN COORDINATES (A.U.)
----------------------------
  NO LB      ZA    FRAG     MASS         X           Y           Z
   0 Cl   17.0000    0    35.453    0.000000    0.000000    0.000000

--------------------------------
INTERNAL COORDINATES (ANGSTROEM)
--------------------------------
 Cl     0   0   0     0.000000000000     0.00000000     0.00000000

---------------------------
INTERNAL COORDINATES (A.U.)
---------------------------
 Cl     0   0   0     0.000000000000     0.00000000     0.00000000

---------------------
BASIS SET INFORMATION
---------------------
There are 1 groups of distinct atoms

 Group   1 Type Cl  : 16s10p1d contracted to 4s3p1d pattern {6631/631/1}

Atom   0Cl   basis set group =>   1
------------------------------------------------------------------------------
                           ORCA GTO INTEGRAL CALCULATION
------------------------------------------------------------------------------

                         BASIS SET STATISTICS AND STARTUP INFO

 # of primitive gaussian shells          ...   27
 # of primitive gaussian functions       ...   51
 # of contracted shells                  ...    8
 # of contracted basis functions         ...   18
 Highest angular momentum                ...    2
 Maximum contraction depth               ...    6
 Integral package used                   ... LIBINT
 Integral threshhold            Thresh   ...  1.000e-12
 Primitive cut-off              TCut     ...  1.000e-14


------------------------------ INTEGRAL EVALUATION ----------------------------


 * One electron integrals 
 Pre-screening matrix                    ... done
 Shell pair data                         ... done (   0.000 sec)

-------------------------------------------------------------------------------
                                 ORCA SCF
-------------------------------------------------------------------------------

------------
SCF SETTINGS
------------
Hamiltonian:
 Ab initio Hamiltonian  Method          .... Hartree-Fock(GTOs)


General Settings:
 Integral files         IntName         .... input
 Hartree-Fock type      HFTyp           .... UHF
 Total Charge           Charge          ....    0
 Multiplicity           Mult            ....    2
 Number of Electrons    NEL             ....   17
 Basis Dimension        Dim             ....   18
 Nuclear Repulsion      ENuc            ....      0.0000000000 Eh

Convergence Acceleration:
 DIIS                   CNVDIIS         .... on
   Start iteration      DIISMaxIt       ....    12
   Startup error        DIISStart       ....  0.200000
   # of expansion vecs  DIISMaxEq       ....     5
   Bias factor          DIISBfac        ....   1.050
   Max. coefficient     DIISMaxC        ....  10.000
 Newton-Raphson         CNVNR           .... off
 SOSCF                  CNVSOSCF        .... off
 Level Shifting         CNVShift        .... on
   Level shift para.    LevelShift      ....    0.2500
   Turn off err/grad.   ShiftErr        ....    0.0010
 Zerner damping         CNVZerner       .... off
 Static damping         CNVDamp         .... on
   Fraction old density DampFac         ....    0.7000
   Max. Damping (<1)    DampMax         ....    0.9800
   Min. Damping (>=0)   DampMin         ....    0.0000
   Turn off err/grad.   DampErr         ....    0.1000
 Fernandez-Rico         CNVRico         .... off

SCF Procedure:
 Maximum # iterations   MaxIter         ....   500
 SCF integral mode      SCFMode         .... Direct
   Integral package                     .... LIBINT
 Reset frequency        DirectResetFreq ....    20
 Integral Threshold     Thresh          ....  1.000e-12 Eh
 Primitive CutOff       TCut            ....  1.000e-14 Eh

Convergence Tolerance:
 Convergence Check Mode ConvCheckMode   .... Total+1el-Energy
 Convergence forced     ConvForced      .... 1
 Energy Change          TolE            ....  1.000e-09 Eh
 1-El. energy change                    ....  1.000e-06 Eh
 DIIS Error             TolErr          ....  1.000e-08


Diagonalization of the overlap matrix:
Smallest eigenvalue                        ... 1.679e-01
Time for diagonalization                   ...    0.001 sec
Threshold for overlap eigenvalues          ... 1.000e-08
Number of eigenvalues below threshold      ... 0
Time for construction of square roots      ...    0.003 sec
Total time needed                          ...    0.004 sec

-------------------
DFT GRID GENERATION
-------------------

General Integration Accuracy     IntAcc      ...  7.000
Radial Grid Type                 RadialGrid  ... Gauss-Chebyshev
Angular Grid (max. acc.)         AngularGrid ... Lebedev-110
Angular grid pruning method      GridPruning ... 3 (G Style)
Weight generation scheme         WeightScheme... Becke
Basis function cutoff            BFCut       ...    1.0000e-12
Integration weight cutoff        WCut        ...    1.0000e-14
Grids for H and He will be reduced by one unit

# of grid points (after initial pruning)     ...   3710 (   0.0 sec)
# of grid points (after weights+screening)   ...   3710 (   0.0 sec)
Grid point division into batches done        ...    0.0 sec
Reduced shell lists constructed in    0.0 sec

Total number of grid points                  ...     3710
Total number of batches                      ...       58
Average number of points per batch           ...       63
Average number of grid points per atom       ...     3710
Average number of shells per batch           ...     6.44 (80.51%)
Average number of basis functions per batch  ...    15.19 (84.37%)
Average number of large shells per batch     ...     6.19 (96.05%)
Average number of large basis fcns per batch ...    14.53 (95.65%)
Maximum spatial batch extension              ...  30.02, 29.70, 27.64 au
Average spatial batch extension              ...   8.31,  6.63,  6.42 au

Time for grid setup =    0.032 sec

------------------------------
INITIAL GUESS: MODEL POTENTIAL
------------------------------
Loading Hartree-Fock densities                     ... done
Calculating cut-offs                               ... done
Setting up the integral package                    ... done
Initializing the effective Hamiltonian             ... done
Starting the Coulomb interaction                   ... done (   0.0 sec)
Reading the grid                                   ... done
Mapping shells                                     ... done
Starting the XC term evaluation                    ... done (   0.0 sec)
Transforming the Hamiltonian                       ... done (   0.0 sec)
Diagonalizing the Hamiltonian                      ... done (   0.0 sec)
Back transforming the eigenvectors                 ... done (   0.0 sec)
Now organizing SCF variables                       ... done
                      ------------------
                      INITIAL GUESS DONE (   0.1 sec)
                      ------------------
--------------
SCF ITERATIONS
--------------
ITER       Energy         Delta-E        Max-DP      RMS-DP      [F,P]     Damp
               ***  Starting incremental Fock matrix formation  ***
  0   -459.4381064130   0.000000000000 0.00775635  0.00074427  0.0618607 0.7000
  1   -459.4402411326  -0.002134719630 0.00688600  0.00064370  0.0451045 0.7000
                               ***Turning on DIIS***
  2   -459.4418811772  -0.001640044569 0.01793510  0.00167483  0.0326653 0.0000
  3   -459.4473022102  -0.005421032971 0.00818867  0.00049384  0.0046155 0.0000
  4   -459.4423732197   0.004928990438 0.00559922  0.00032966  0.0024083 0.0000
  5   -459.4459390385  -0.003565818733 0.00302570  0.00016862  0.0008707 0.0000
  6   -459.4465231190  -0.000584080515 0.00015062  0.00001508  0.0000382 0.0000
  7   -459.4465268043  -0.000003685321 0.00005332  0.00000578  0.0000049 0.0000
  8   -459.4465106708   0.000016133501 0.00002668  0.00000272  0.0000008 0.0000
  9   -459.4465080455   0.000002625342 0.00001440  0.00000151  0.0000006 0.0000
 10   -459.4465081305  -0.000000085059 0.00001011  0.00000106  0.0000003 0.0000
 11   -459.4465086357  -0.000000505144 0.00000148  0.00000016  0.0000000 0.0000
                            ***DIIS convergence achieved***

               *****************************************************
               *                     SUCCESS                       *
               *           SCF CONVERGED AFTER  12 CYCLES          *
               *****************************************************


----------------
TOTAL SCF ENERGY
----------------

Total Energy       :         -459.44650876 Eh          -12502.17510 eV

Components:
Nuclear Repulsion  :            0.00000000 Eh               0.00000 eV
Electronic Energy  :         -459.44650876 Eh          -12502.17510 eV
One Electron Energy:         -634.87628503 Eh          -17275.86200 eV
Two Electron Energy:          175.42977627 Eh            4773.68690 eV

Virial components:
Potential Energy   :         -918.96771590 Eh          -25006.38285 eV
Kinetic Energy     :          459.52120714 Eh           12504.20775 eV
Virial Ratio       :            1.99983744


---------------
SCF CONVERGENCE
---------------

  Last Energy change         ...   -1.2747e-07  Tolerance :   1.0000e-09
  Last MAX-Density change    ...    1.2687e-07  Tolerance :   1.0000e-08
  Last RMS-Density change    ...    1.3038e-08  Tolerance :   1.0000e-09
  Last DIIS Error            ...    2.6434e-09  Tolerance :   1.0000e-08

             **** THE GBW FILE WAS UPDATED (input.gbw) ****
             **** DENSITY FILE WAS UPDATED (input.scfp) ****
             **** ENERGY FILE WAS UPDATED (input.en.tmp) ****
----------------------
UHF SPIN CONTAMINATION
----------------------

Expectation value of <S**2>     :     0.754989
Ideal value S*(S+1) for S=0.5   :     0.750000
Deviation                       :     0.004989

             **** THE GBW FILE WAS UPDATED (input.gbw) ****
             **** DENSITY FILE WAS UPDATED (input.scfp) ****
----------------
ORBITAL ENERGIES
----------------
                 SPIN UP ORBITALS
  NO   OCC          E(Eh)            E(eV) 
   0   1.0000    -104.871926     -2853.7102 
   1   1.0000     -10.607730      -288.6510 
   2   1.0000      -8.094542      -220.2637 
   3   1.0000      -8.068931      -219.5668 
   4   1.0000      -8.068931      -219.5668 
   5   1.0000      -1.133358       -30.8402 
   6   1.0000      -0.575944       -15.6722 
   7   1.0000      -0.501419       -13.6443 
   8   1.0000      -0.501419       -13.6443 
   9   0.0000       0.500381        13.6160 
  10   0.0000       0.567582        15.4447 
  11   0.0000       0.609019        16.5723 
  12   0.0000       0.609019        16.5723 
  13   0.0000       1.046715        28.4826 
  14   0.0000       1.062778        28.9197 
  15   0.0000       1.062778        28.9197 
  16   0.0000       1.117758        30.4157 
  17   0.0000       1.117758        30.4157 

                 SPIN DOWN ORBITALS
  NO   OCC          E(Eh)            E(eV) 
   0   1.0000    -104.860521     -2853.3998 
   1   1.0000     -10.596356      -288.3415 
   2   1.0000      -8.062966      -219.4045 
   3   1.0000      -8.062966      -219.4045 
   4   1.0000      -8.046205      -218.9484 
   5   1.0000      -1.011235       -27.5171 
   6   1.0000      -0.476142       -12.9565 
   7   1.0000      -0.476142       -12.9565 
   8   0.0000      -0.037647        -1.0244 
   9   0.0000       0.524640        14.2762 
  10   0.0000       0.617856        16.8127 
  11   0.0000       0.617856        16.8127 
  12   0.0000       0.662353        18.0235 
  13   0.0000       1.127822        30.6896 
  14   0.0000       1.127822        30.6896 
  15   0.0000       1.160476        31.5782 
  16   0.0000       1.160476        31.5782 
  17   0.0000       1.173421        31.9304 

                    ********************************
                    * MULLIKEN POPULATION ANALYSIS *
                    ********************************

--------------------------------------------
MULLIKEN ATOMIC CHARGES AND SPIN POPULATIONS
--------------------------------------------
   0 Cl:    0.000000    1.000000
Sum of atomic charges         :    0.0000000
Sum of atomic spin populations:    1.0000000

-----------------------------------------------------
MULLIKEN REDUCED ORBITAL CHARGES AND SPIN POPULATIONS
-----------------------------------------------------
CHARGE
  0 Cls       :     5.997644  s :     5.997644
      pz      :     3.000248  p :    11.000000
      px      :     3.999756
      py      :     3.999996
      dz2     :     0.002354  d :     0.002356
      dxz     :     0.000002
      dyz     :     0.000000
      dx2y2   :     0.000000
      dxy     :     0.000000

SPIN
  0 Cls       :     0.000192  s :     0.000192
      pz      :     0.999752  p :     1.000000
      px      :     0.000244
      py      :     0.000004
      dz2     :    -0.000192  d :    -0.000192
      dxz     :    -0.000000
      dyz     :    -0.000000
      dx2y2   :    -0.000000
      dxy     :    -0.000000


                     *******************************
                     * LOEWDIN POPULATION ANALYSIS *
                     *******************************

-------------------------------------------
LOEWDIN ATOMIC CHARGES AND SPIN POPULATIONS
-------------------------------------------
   0 Cl:   -0.000000    1.000000

----------------------------------------------------
LOEWDIN REDUCED ORBITAL CHARGES AND SPIN POPULATIONS
----------------------------------------------------
CHARGE
  0 Cls       :     5.997644  s :     5.997644
      pz      :     3.000248  p :    11.000000
      px      :     3.999756
      py      :     3.999996
      dz2     :     0.002354  d :     0.002356
      dxz     :     0.000002
      dyz     :     0.000000
      dx2y2   :     0.000000
      dxy     :     0.000000

SPIN
  0 Cls       :     0.000192  s :     0.000192
      pz      :     0.999752  p :     1.000000
      px      :     0.000244
      py      :     0.000004
      dz2     :    -0.000192  d :    -0.000192
      dxz     :    -0.000000
      dyz     :    -0.000000
      dx2y2   :    -0.000000
      dxy     :    -0.000000


                      *****************************
                      * MAYER POPULATION ANALYSIS *
                      *****************************

  NA   - Mulliken gross atomic population
  ZA   - Total nuclear charge
  QA   - Mulliken gross atomic charge
  VA   - Mayer's total valence
  BVA  - Mayer's bonded valence
  FA   - Mayer's free valence

  ATOM       NA         ZA         QA         VA         BVA        FA
  0 Cl    17.0000    17.0000     0.0000     1.0100     0.0000     1.0100

  Mayer bond orders larger than 0.100000


-------
TIMINGS
-------

Total SCF time: 0 days 0 hours 0 min 1 sec 

Total time                  ....       1.189 sec
Sum of individual times     ....       1.019 sec  ( 85.7%)

Fock matrix formation       ....       0.868 sec  ( 73.0%)
Diagonalization             ....       0.002 sec  (  0.2%)
Density matrix formation    ....       0.000 sec  (  0.0%)
Population analysis         ....       0.004 sec  (  0.3%)
Initial guess               ....       0.111 sec  (  9.4%)
Orbital Transformation      ....       0.000 sec  (  0.0%)
Orbital Orthonormalization  ....       0.000 sec  (  0.0%)
DIIS solution               ....       0.001 sec  (  0.1%)


------------------------------------------------------------------------------- 
                              ORCA-MATRIX DRIVEN CI                            
------------------------------------------------------------------------------- 

--------------------------------
AUTOMATIC CHOICE OF INCORE LEVEL
--------------------------------

Memory available                           ...   4000.00 MB
Memory needed for S+T                      ...      0.02 MB
Memory needed for J+K                      ...      0.04 MB
Memory needed for DIIS                     ...      0.26 MB
Memory needed for 3-ext                    ...      0.02 MB
Memory needed for 4-ext                    ...      0.03 MB
Memory needed for triples                  ...      0.03 MB
 -> Final InCoreLevel    ... 5
 -> check shows that triples correction can be computed


Wavefunction type
-----------------
Correlation treatment                      ...      CCSD     
Single excitations                         ... ON
Orbital optimization                       ... OFF
Calculation of Z vector                    ... OFF
Calculation of Brueckner orbitals          ... OFF
Perturbative triple excitations            ... ON
Calculation of F12 correction              ... OFF
Frozen core treatment                      ... chemical core (10 el)
Reference Wavefunction                     ... UHF
  Alpha-MOs occ    :     5 ...    8 (  4 MO's/  4 electrons)
  Beta-MOs occ     :     5 ...    7 (  3 MO's/  3 electrons)
  Alpha-MOs virt   :     9 ...   17 (  9 MO's              )
  Beta-MOs virt    :     8 ...   17 ( 10 MO's              )
Number of AO's                             ...     18
Number of electrons                        ...     17
Number of correlated electrons             ...      7

Algorithmic settings
--------------------
Integral transformation                    ... AO direct full transformation
K(C) Formation                             ... FULL-MO TRAFO
Maximum number of iterations               ...        50
Convergence tolerance (max. residuum)      ... 2.500e-05
Level shift for amplitude update           ... 2.000e-01
Maximum number of DIIS vectors             ...         7
DIIS turned on at iteration                ...         0
Damping before turning on DIIS             ...     0.500
Damping after turning on DIIS              ...     0.000
Pair specific amplitude update             ... OFF
Natural orbital iterations                 ... OFF
Perturbative natural orbital generation    ... OFF
Printlevel                                 ... 2

Memory handling:
----------------
Maximum memory for working arrays          ...   4000 MB
Data storage in matrix containers          ... UNCOMPRESSED
Data type for integral storage             ... DOUBLE
In-Core Storage of quantities:
   Amplitudes+Sigma Vector      ... YES
   J+K operators                ... YES
   DIIS vectors                 ... YES
   3-external integrals         ... YES
   4-external integrals         ... YES


Initializing the integral package          ... done
Warning: reference  - re-canonicalizations have been set to INT 1 VIRT 1

--------------------------
UNRESTRICTED FOCK OPERATOR
--------------------------

<ss|ss>:           55 b            0 skpd (  0.0%)    0.000 s ( 0.008 ms/b)
<ss|sp>:          120 b            0 skpd (  0.0%)    0.002 s ( 0.019 ms/b)
<ss|sd>:           40 b            0 skpd (  0.0%)    0.000 s ( 0.008 ms/b)
<ss|pp>:           60 b            0 skpd (  0.0%)    0.001 s ( 0.023 ms/b)
<ss|pd>:           30 b            0 skpd (  0.0%)    0.000 s ( 0.010 ms/b)
<ss|dd>:           10 b            0 skpd (  0.0%)    0.000 s ( 0.007 ms/b)
<sp|sp>:           78 b            0 skpd (  0.0%)    0.002 s ( 0.022 ms/b)
<sp|sd>:           48 b            0 skpd (  0.0%)    0.001 s ( 0.011 ms/b)
<sp|pp>:           72 b            0 skpd (  0.0%)    0.003 s ( 0.035 ms/b)
<sp|pd>:           36 b            0 skpd (  0.0%)    0.001 s ( 0.019 ms/b)
<sp|dd>:           12 b            0 skpd (  0.0%)    0.000 s ( 0.014 ms/b)
<sd|sd>:           10 b            0 skpd (  0.0%)    0.000 s ( 0.009 ms/b)
<sd|pp>:           24 b            0 skpd (  0.0%)    0.001 s ( 0.024 ms/b)
<sd|pd>:           12 b            0 skpd (  0.0%)    0.000 s ( 0.019 ms/b)
<sd|dd>:            4 b            0 skpd (  0.0%)    0.000 s ( 0.018 ms/b)
<pp|pp>:           21 b            0 skpd (  0.0%)    0.002 s ( 0.083 ms/b)
<pp|pd>:           18 b            0 skpd (  0.0%)    0.001 s ( 0.045 ms/b)
<pp|dd>:            6 b            0 skpd (  0.0%)    0.000 s ( 0.032 ms/b)
<pd|pd>:            6 b            0 skpd (  0.0%)    0.000 s ( 0.043 ms/b)
<pd|dd>:            3 b            0 skpd (  0.0%)    0.000 s ( 0.044 ms/b)
<dd|dd>:            1 b            0 skpd (  0.0%)    0.000 s ( 0.084 ms/b)
Recanonicalizing the internal orbitals
Recanonicalizing the virtual orbitals
Time needed for Fock operator              ...            0.019 sec
Reference energy                           ...   -459.446508754
Warning: for UHF the TrafoType has to be JK
Warning: for UHF the K(C)-option cannot be MO but must be AOX

-------------------------------
PARTIAL EXCHANGE TRANSFORMATION
-------------------------------

Transformation type                        ... two-operators
Generation of integrals (i,mue|j,nue)      ... ON
Generation of integrals (mue,kappa|nue,tau)... ON
Generation of integrals (i,mue|a,nue)      ... ON
Dimension of the basis                     ...   18
Number of internal alpha-MOs               ...    4 (   5-   8)
Number of internal beta-MOs                ...    3 (   5-   7)
Number of external alpha-MOs               ...    9 (   9-  17)
Number of external beta-MOs                ...   10 (   8-  17)
Pair cutoff                                ... 0.000e+00 Eh
Number of AO pairs in the trafo            ...  171
Total Number of distinct AO pairs          ...  171
Memory devoted for trafo                   ... 4000.0 MB 
Max. Number of MO pairs treated together   ... 1618172      
Number Format for Storage                  ... Double (8 Byte)
Integral package used                      ... LIBINT

Starting integral evaluation:
    ... done with AO integral generation
Closing buffer AOK[aa] ( 0.00 GB; CompressionRatio= 0.91)
Closing buffer AOK[bb] ( 0.00 GB; CompressionRatio= 0.86)
Closing buffer AOK[ab] ( 0.00 GB; CompressionRatio= 0.89)
Closing buffer AOK[ba] ( 0.00 GB; CompressionRatio= 0.89)
Collecting buffer AOK 
Closing buffer IAAO1[aa] ( 0.00 GB; CompressionRatio= 0.96)
Closing buffer IAAO1[bb] ( 0.00 GB; CompressionRatio= 0.95)
Closing buffer IAAO1[ab] ( 0.00 GB; CompressionRatio= 0.96)
Closing buffer IAAO1[ba] ( 0.00 GB; CompressionRatio= 0.95)
Closing buffer IAAO2[aa] ( 0.00 GB; CompressionRatio= 0.96)
Closing buffer IAAO2[bb] ( 0.00 GB; CompressionRatio= 0.95)
Closing buffer IAAO2[ab] ( 0.00 GB; CompressionRatio= 0.96)
Closing buffer IAAO2[ba] ( 0.00 GB; CompressionRatio= 0.95)
Collecting buffer IAAO 
Closing buffer PRQS    ( 0.00 GB; CompressionRatio= 1.00)
Collecting buffer PRQS 
Number of alpha/alpha MO pairs in trafo    ...   10
Number of beta /beta  MO pairs in trafo    ...    6
Number of alpha/ beta MO pairs in trafo    ...   12
------------------------
SORTING OF (i,mue|j,nue)
------------------------

SORTING OF ALPHA/ALPHA PAIRS
IBATCH = 1 of  1
Closing buffer KAO[aa] ( 0.00 GB; CompressionRatio= 1.00)
Collecting buffer KAO 
SORTING OF BETA /BETA  PAIRS
IBATCH = 1 of  1
Closing buffer KAO[bb] ( 0.00 GB; CompressionRatio= 1.00)
Collecting buffer KAO 
SORTING OF ALPHA/BETA  PAIRS
IBATCH = 1 of  1
Closing buffer KAO[ab] ( 0.00 GB; CompressionRatio= 0.995391705069)
Collecting buffer KAO[ab] 
------------------------
SORTING OF (i,mue|a,nue)
------------------------

Number of alpha/alpha (i,a) pairs in trafo  ...   36
Number of beta /beta  (i,a) pairs in trafo  ...   30
Number of alpha/ beta (i,a) pairs in trafo  ...   40
Number of beta /alpha (i,a) pairs in trafo  ...   27
Setting up the alpha/alpha list             ... done
Setting up the beta /beta  list             ... done
Setting up the alpha/beta  list             ... done
Setting up the beta /alpha list             ... done
    ... Now sorting (i,mue|a,nue)integrals
    ... Integrals (i,b|a,c) will be made on the fly
SORTING OF ALPHA/ALPHA PAIRS
IBATCH = 1 of  1
Closing buffer IPAQ[aa]  0.00 GB; CompressionRatio= 1.00)
SORTING OF BETA /BETA  PAIRS
IBATCH = 1 of  1
Closing buffer IPAQ[bb]( 0.00 GB; CompressionRatio= 1.00)
SORTING OF ALPHA/BETA  PAIRS (NMatSort_ab=40)
IBATCH = 1 of  1
Closing buffer IPAQ[ab]( 0.00 GB; CompressionRatio= 1.00)
SORTING OF BETA/ALPHA  PAIRS
IBATCH = 1 of  1
Closing buffer IPAQ[ba]( 0.00 GB; CompressionRatio= 1.00)
N(AO-Batches) Done                         ...      2304 
N(AO-Batches) Skipped                      ...         0 
N(IJ)-pairs Skipped                        ...         0 
TOTAL TIME for half transformation         ...     0.070 sec
AO-integral generation                     ...     0.042 sec
Half transformation                        ...     0.005 sec
K-integral sorting                         ...     0.008 sec

------------------------------
PARTIAL COULOMB TRANSFORMATION
------------------------------

Transformation type                        ... two-operators
Dimension of the basis                     ...   18
Number of internal alpha-MOs               ...    4 (5-8)
Number of internal beta-MOs                ...    3 (5-7)
Pair cutoff                                ... 0.000e+00 Eh
Number of AO pairs included in the trafo   ...  171
Total Number of distinct AO pairs          ...  171
Memory devoted for trafo                   ... 4000.0 MB 
Max. Number of MO pairs treated together   ... 3066011      
Max. Number of MOs treated per batch       ... 170333      
Number Format for Storage                  ... Double (8 Byte)
AO-integral source                         ... DIRECT
Integral package used                      ... LIBINT

Starting integral evaluation:
<ss|**>:          360 b        0 skpd     0.005 s (  0.014 ms/b)
<sp|**>:          432 b        0 skpd     0.009 s (  0.020 ms/b)
<sd|**>:          144 b        0 skpd     0.002 s (  0.012 ms/b)
<pp|**>:          216 b        0 skpd     0.008 s (  0.036 ms/b)
<pd|**>:          108 b        0 skpd     0.002 s (  0.021 ms/b)
<dd|**>:           36 b        0 skpd     0.001 s (  0.014 ms/b)
Closing buffer AOJ[aa] ( 0.00 GB; CompressionRatio= 0.87)
Closing buffer AOJ[bb] ( 0.00 GB; CompressionRatio= 0.80)
Collecting buffer AOJ 
    ... done with AO integral generation
Number of Alpha-MO pairs included          ...   10
Number of Beta-MO pairs included           ...    6
    ... Now sorting integrals
SORTING ALPHA/ALPHA PAIRS
IBATCH = 1 of  1
Closing buffer JAO[aa] ( 0.00 GB; CompressionRatio= 0.99)
SORTING BETA/BETA PAIRS
IBATCH = 1 of  1
Closing buffer JAO[bb] ( 0.00 GB; CompressionRatio= 0.99)
Collecting buffer JAO 
TOTAL TIME for half transformation         ...     0.033 sec
AO-integral generation                     ...     0.025 sec
Half transformation                        ...     0.001 sec
J-integral sorting                         ...     0.002 sec

-------------------------- SECOND HALF TRANSFORMATION -------------------------
Formation of (ij|kl),(ij|ka), (ij|ab)      ... ok (     0.000 sec)
Formation of (ik|jl),(ik|ja), (ia|jb)      ... ok (     0.000 sec)


-----------------------
SPIN UNRESTRICTED GUESS
-----------------------

Entering MDCI_UHF_Guess, Tailored=0
Spin-components of the MP2 energy:
EMP2(aa)=     -0.017088102
EMP2(bb)=     -0.008063184
EMP2(ab)=     -0.077600051

Initial guess performed in     0.000 sec
E(0)                                       ...   -459.446508754
E(MP2)                                     ...     -0.102751336
Initial E(tot)                             ...   -459.549260091
<T|T>                                      ...      0.034934425
Number of pairs included                   ... 21

------------------------------------------------
                  UHF COUPLED CLUSTER ITERATIONS
------------------------------------------------

Number of amplitudes to be optimized       ...         1503

Iter       E(tot)           E(Corr)          Delta-E          Residual     Time      <S|S>**1/2
  0   -459.549260091     -0.102751336      0.000000000      0.021053202    0.02      0.000000015
                           *** Turning on DIIS ***
  1   -459.561757942     -0.115249188     -0.012497852      0.008959072    0.02      0.006488012
  2   -459.565760417     -0.119251662     -0.004002474      0.001774344    0.02      0.010215403
  3   -459.565919300     -0.119410545     -0.000158883      0.000294443    0.02      0.011031446
  4   -459.565941262     -0.119432508     -0.000021963      0.000097938    0.02      0.011117970
  5   -459.565938601     -0.119429847      0.000002661      0.000020381    0.02      0.011117816
               --- The Coupled-Cluster iterations have converged ---

----------------------
COUPLED CLUSTER ENERGY
----------------------

E(0)                                       ...   -459.446508754
E(CORR)                                    ...     -0.119429847
E(TOT)                                     ...   -459.565938601
Singles norm <S|S>**1/2                    ...      0.011117816 ( 0.004369658, 0.006748158)  
T1 diagnostic                              ...      0.004202140                              

------------------
LARGEST AMPLITUDES
------------------
   6a-> 13a   5b->  8b       0.046762
   7a-> 14a   5b->  8b       0.040480
   8a-> 15a   5b->  8b       0.040480
   8a-> 16a   7a-> 17a       0.032657
   8a-> 17a   7a-> 16a       0.032657
   7b-> 13b   6b-> 14b       0.031136
   7b-> 14b   6b-> 13b       0.031136
   8a-> 12a   6b-> 11b       0.030068
   7a-> 11a   7b-> 10b       0.030068
   7a-> 14a   7b-> 15b       0.029317
   8a-> 15a   6b-> 16b       0.029317
   8a-> 16a   6b-> 13b       0.028328
   8a-> 17a   6b-> 14b       0.028328
   7a-> 16a   7b-> 13b       0.028328
   7a-> 17a   7b-> 14b       0.028328
   8a-> 13a   6a-> 15a       0.026525

----------------------
UHF TRIPLES CORRECTION (Algorithm 1)
----------------------

Multiplier for the singles contribution    ...      1.000000000

SPIN-CASE Alpha-Alpha-Alpha:
10% done
20% done
30% done
40% done
50% done
60% done
70% done
80% done
90% done


SPIN-CASE Beta-Beta-Beta:
10% done
20% done
30% done
40% done
50% done
60% done
70% done
80% done
90% done


SPIN-CASE Alpha-Alpha-Beta:
10% done
20% done
30% done
40% done
50% done
60% done
70% done
80% done
90% done


SPIN-CASE Beta-Beta-Alpha:
10% done
20% done
30% done
40% done
50% done
60% done
70% done
80% done
90% done


Triples Correction (T)                     ...     -0.001531770
    alpha-alpha-alpha ... -0.000044280 (  2.9%)
    alpha-alpha-beta  ... -0.000884790 ( 57.8%)
    alpha-beta -beta  ... -0.000593298 ( 38.7%)
    beta -beta -beta  ... -0.000009402 (  0.6%)
Scaling of triples based on CCSD energies (Peterson et al. Molecular Physics 113, 1551 (2015))
E(T*) = f*E(T) where f = E(F12-CCSD)/E(CCSD) 
f = CCSD (with F12)/ CCSD (without F12)    ...      1.000000000
Scaled triples correction (T)              ...     -0.001531770

Final correlation energy                   ...     -0.120961617
E(CCSD)                                    ...   -459.565938601
E(CCSD(T))                                 ...   -459.567470372



        !!!!!!!!!!!!!!!!!!!!!!!!!!!!!!!!!!!!!!!!!!!!!!!!!!!!!!!!!!!!!!!!!!!!!!!!!! 
        !  Warning: Densities are linearized densities                           !
        !!!!!!!!!!!!!!!!!!!!!!!!!!!!!!!!!!!!!!!!!!!!!!!!!!!!!!!!!!!!!!!!!!!!!!!!!! 

NORM  =      1.048376769 sqrt=     1.023902715
W(HF) =      0.953855550
------------------------------------------------------------------------------
                           ORCA POPULATION ANALYSIS
------------------------------------------------------------------------------
Input electron density              ... input.mdcip
Input spin density                  ... input.mdcir
BaseName (.gbw .S,...)              ... input

                    ********************************
                    * MULLIKEN POPULATION ANALYSIS *
                    ********************************

------------------------------------------
MULLIKEN ATOMIC CHARGES AND SPIN DENSITIES
------------------------------------------
   0 Cl:   -0.000000    1.000000
Sum of atomic charges       :   -0.0000000
Sum of atomic spin densities:    1.0000000

---------------------------------------------------
MULLIKEN REDUCED ORBITAL CHARGES AND SPIN DENSITIES
---------------------------------------------------
CHARGE
  0 Cls       :     5.982780  s :     5.982780
      pz      :     3.001720  p :    10.960612
      px      :     3.979328
      py      :     3.979563
      dz2     :     0.010773  d :     0.056609
      dxz     :     0.011080
      dyz     :     0.011080
      dx2y2   :     0.011838
      dxy     :     0.011838

SPIN
  0 Cls       :     0.006082  s :     0.006082
      pz      :     0.981610  p :     0.980835
      px      :    -0.000269
      py      :    -0.000505
      dz2     :     0.005708  d :     0.013083
      dxz     :     0.004059
      dyz     :     0.004058
      dx2y2   :    -0.000371
      dxy     :    -0.000371


                     *******************************
                     * LOEWDIN POPULATION ANALYSIS *
                     *******************************

-----------------------------------------
LOEWDIN ATOMIC CHARGES AND SPIN DENSITIES
-----------------------------------------
   0 Cl:   -0.000000    1.000000

--------------------------------------------------
LOEWDIN REDUCED ORBITAL CHARGES AND SPIN DENSITIES
--------------------------------------------------
CHARGE
  0 Cls       :     5.982780  s :     5.982780
      pz      :     3.001720  p :    10.960612
      px      :     3.979328
      py      :     3.979563
      dz2     :     0.010773  d :     0.056609
      dxz     :     0.011080
      dyz     :     0.011080
      dx2y2   :     0.011838
      dxy     :     0.011838

SPIN
  0 Cls       :     0.006082  s :     0.006082
      pz      :     0.981610  p :     0.980835
      px      :    -0.000269
      py      :    -0.000505
      dz2     :     0.005708  d :     0.013083
      dxz     :     0.004059
      dyz     :     0.004058
      dx2y2   :    -0.000371
      dxy     :    -0.000371


                      *****************************
                      * MAYER POPULATION ANALYSIS *
                      *****************************

  NA   - Mulliken gross atomic population
  ZA   - Total nuclear charge
  QA   - Mulliken gross atomic charge
  VA   - Mayer's total valence
  BVA  - Mayer's bonded valence
  FA   - Mayer's free valence

  ATOM       NA         ZA         QA         VA         BVA        FA
  0 Cl    17.0000    17.0000    -0.0000     1.3437     0.0000     1.3437





------------------------------------------------------------------------------- 
                                     TIMINGS                                   
------------------------------------------------------------------------------- 


Total execution time                   ...        0.371 sec

Fock Matrix Formation                  ...        0.019 sec (  5.2%)
Initial Guess                          ...        0.000 sec (  0.0%)
DIIS Solver                            ...        0.001 sec (  0.3%)
State Vector Update                    ...        0.000 sec (  0.0%)
Sigma-vector construction              ...        0.100 sec ( 26.9%)
  <D|H|D>(2-ext)                       ...        0.003 sec (  2.9% of sigma)
  <D|H|D>(4-ext)                       ...        0.006 sec (  6.4% of sigma)
  Fock-dressing                        ...        0.082 sec ( 82.5% of sigma)
  (ij|ab),(ia|jb)-dressing             ...        0.004 sec (  4.2% of sigma)
Total Time for computing (T)           ...        0.002 sec (  0.5% of ALL)


-------------------------   --------------------
FINAL SINGLE POINT ENERGY      -459.567470371648
-------------------------   --------------------


                            ***************************************
                            *     ORCA property calculations      *
                            ***************************************

                                    ---------------------
                                    Active property flags
                                    ---------------------
   (+) Dipole Moment


------------------------------------------------------------------------------
                       ORCA ELECTRIC PROPERTIES CALCULATION
------------------------------------------------------------------------------

Dipole Moment Calculation                       ... on
Quadrupole Moment Calculation                   ... off
Polarizability Calculation                      ... off
GBWName                                         ... input.gbw
Electron density file                           ... input.scfp
The origin for moment calculation is the CENTER OF MASS  = ( 0.000000,  0.000000  0.000000)

-------------
DIPOLE MOMENT
-------------
                                X             Y             Z
Electronic contribution:      0.00000       0.00000      -0.00000
Nuclear contribution   :      0.00000       0.00000       0.00000
                        -----------------------------------------
Total Dipole Moment    :      0.00000       0.00000      -0.00000
                        -----------------------------------------
Magnitude (a.u.)       :      0.00000
Magnitude (Debye)      :      0.00000



--------------------
Rotational spectrum 
--------------------
 
Rotational constants in cm-1:     0.000000     0.000000     0.000000 
Rotational constants in MHz :     0.000000     0.000000     0.000000 

 Dipole components along the rotational axes: 
x,y,z [a.u.] :     0.000000     0.000000    -0.000000 
x,y,z [Debye]:     0.000000     0.000000    -0.000000 

 

                           *** MDCI DENSITY ***

------------------------------------------------------------------------------
                       ORCA ELECTRIC PROPERTIES CALCULATION
------------------------------------------------------------------------------

Dipole Moment Calculation                       ... on
Quadrupole Moment Calculation                   ... off
Polarizability Calculation                      ... off
GBWName                                         ... input.gbw
Electron density file                           ... input.mdcip
The origin for moment calculation is the CENTER OF MASS  = ( 0.000000,  0.000000  0.000000)

-------------
DIPOLE MOMENT
-------------
                                X             Y             Z
Electronic contribution:      0.00000       0.00000      -0.00000
Nuclear contribution   :      0.00000       0.00000       0.00000
                        -----------------------------------------
Total Dipole Moment    :      0.00000       0.00000      -0.00000
                        -----------------------------------------
Magnitude (a.u.)       :      0.00000
Magnitude (Debye)      :      0.00000



--------------------
Rotational spectrum 
--------------------
 
Rotational constants in cm-1:     0.000000     0.000000     0.000000 
Rotational constants in MHz :     0.000000     0.000000     0.000000 

 Dipole components along the rotational axes: 
x,y,z [a.u.] :     0.000000     0.000000    -0.000000 
x,y,z [Debye]:     0.000000     0.000000    -0.000000 

 

Timings for individual modules:

Sum of individual times         ...        1.971 sec (=   0.033 min)
GTO integral calculation        ...        0.324 sec (=   0.005 min)  16.4 %
SCF iterations                  ...        1.222 sec (=   0.020 min)  62.0 %
MDCI module                     ...        0.426 sec (=   0.007 min)  21.6 %
                             ****ORCA TERMINATED NORMALLY****
TOTAL RUN TIME: 0 days 0 hours 0 minutes 2 seconds 257 msec

                                 *****************
                                 * O   R   C   A *
                                 *****************

           --- An Ab Initio, DFT and Semiempirical electronic structure package ---

                  #######################################################
                  #                        -***-                        #
                  #          Department of theory and spectroscopy      #
                  #               Directorship: Frank Neese             #
                  #        Max Planck Institute fuer Kohlenforschung    #
                  #                Kaiser Wilhelm Platz 1               #
                  #                 D-45470 Muelheim/Ruhr               #
                  #                      Germany                        #
                  #                                                     #
                  #                  All rights reserved                #
                  #                        -***-                        #
                  #######################################################


                         Program Version 4.2.0 -  RELEASE  -


 With contributions from (in alphabetic order):
   Daniel Aravena         : Magnetic Suceptibility
   Michael Atanasov       : Ab Initio Ligand Field Theory (pilot matlab implementation)
   Alexander A. Auer      : GIAO ZORA, VPT2
   Ute Becker             : Parallelization
   Giovanni Bistoni       : ED, misc. LED, open-shell LED, HFLED
   Martin Brehm           : Molecular dynamics
   Dmytro Bykov           : SCF Hessian
   Vijay G. Chilkuri      : MRCI spin determinant printing, contributions to CSF-ICE
   Dipayan Datta          : RHF DLPNO-CCSD density
   Achintya Kumar Dutta   : EOM-CC, STEOM-CC
   Dmitry Ganyushin       : Spin-Orbit,Spin-Spin,Magnetic field MRCI
   Miquel Garcia          : C-PCM Hessian, Gaussian charge scheme
   Yang Guo               : DLPNO-NEVPT2, CIM, IAO-localization
   Andreas Hansen         : Spin unrestricted coupled pair/coupled cluster methods
   Benjamin Helmich-Paris : CASSCF linear response (MC-RPA)
   Lee Huntington         : MR-EOM, pCC
   Robert Izsak           : Overlap fitted RIJCOSX, COSX-SCS-MP3, EOM
   Christian Kollmar      : KDIIS, OOCD, Brueckner-CCSD(T), CCSD density
   Simone Kossmann        : Meta GGA functionals, TD-DFT gradient, OOMP2, MP2 Hessian
   Martin Krupicka        : AUTO-CI
   Lucas Lang             : DCDCAS
   Dagmar Lenk            : GEPOL surface, SMD
   Dimitrios Liakos       : Extrapolation schemes; Compound Job, initial MDCI parallelization
   Dimitrios Manganas     : Further ROCIS development; embedding schemes
   Dimitrios Pantazis     : SARC Basis sets
   Taras Petrenko         : DFT Hessian,TD-DFT gradient, ASA, ECA, R-Raman, ABS, FL, XAS/XES, NRVS
   Peter Pinski           : DLPNO-MP2, DLPNO-MP2 Gradient
   Christoph Reimann      : Effective Core Potentials
   Marius Retegan         : Local ZFS, SOC
   Christoph Riplinger    : Optimizer, TS searches, QM/MM, DLPNO-CCSD(T), (RO)-DLPNO pert. Triples
   Tobias Risthaus        : Range-separated hybrids, TD-DFT gradient, RPA, STAB
   Michael Roemelt        : Original ROCIS implementation
   Masaaki Saitow         : Open-shell DLPNO-CCSD energy and density
   Barbara Sandhoefer     : DKH picture change effects
   Avijit Sen             : IP-ROCIS
   Kantharuban Sivalingam : CASSCF convergence, NEVPT2, FIC-MRCI
   Bernardo de Souza      : ESD, SOC TD-DFT
   Georgi Stoychev        : AutoAux, RI-MP2 NMR
   Willem Van den Heuvel  : Paramagnetic NMR
   Boris Wezisla          : Elementary symmetry handling
   Frank Wennmohs         : Technical directorship


 We gratefully acknowledge several colleagues who have allowed us to
 interface, adapt or use parts of their codes:
   Stefan Grimme, W. Hujo, H. Kruse,             : VdW corrections, initial TS optimization,
                  C. Bannwarth                     DFT functionals, gCP, sTDA/sTD-DF
   Ed Valeev, F. Pavosevic, A. Kumar             : LibInt (2-el integral package), F12 methods
   Garnet Chan, S. Sharma, J. Yang, R. Olivares  : DMRG
   Ulf Ekstrom                                   : XCFun DFT Library
   Mihaly Kallay                                 : mrcc  (arbitrary order and MRCC methods)
   Andreas Klamt, Michael Diedenhofen            : otool_cosmo (COSMO solvation model)
   Jiri Pittner, Ondrej Demel                    : Mk-CCSD
   Frank Weinhold                                : gennbo (NPA and NBO analysis)
   Christopher J. Cramer and Donald G. Truhlar   : smd solvation model
   Lars Goerigk                                  : TD-DFT with DH, B97 family of functionals
   V. Asgeirsson, H. Jonsson                     : NEB implementation
   FAccTs GmbH                                   : IRC, NEB, NEB-TS, Multilevel, MM, QM/MM, CI optimization
   S Lehtola, MJT Oliveira, MAL Marques          : LibXC Library


 Your calculation uses the libint2 library for the computation of 2-el integrals
 For citations please refer to: http://libint.valeyev.net

 Your ORCA version has been built with support for libXC version: 4.2.3
 For citations please refer to: https://tddft.org/programs/libxc/

 This ORCA versions uses:
   CBLAS   interface :  Fast vector & matrix operations
   LAPACKE interface :  Fast linear algebra routines
   SCALAPACK package :  Parallel linear algebra routines


Setting NCore(Cl) from 10 to 10
----- Orbital basis set information -----
Your calculation utilizes the basis: def2-SVP
   F. Weigend and R. Ahlrichs, Phys. Chem. Chem. Phys. 7, 3297 (2005).

================================================================================
                                        WARNINGS
                       Please study these warnings very carefully!
================================================================================


WARNING: your system is open-shell and RHF/RKS was chosen
  ===> : WILL SWITCH to UHF/UKS


WARNING: No MP2 level density has been requested!
         To caclulate MP2 level properties use
         %mp2 Density relaxed end
         or
         %mp2 Density unrelaxed end

WARNING: Post HF methods need fully converged wavefunctions
  ===> : Setting SCFConvForced true
         You can overwrite this default with %scf ConvForced false 


INFO   : the flag for use of LIBINT has been found!

================================================================================
                                       INPUT FILE
================================================================================
NAME = input.com
|  1> ! MP2   
|  2> *xyz  0 2
|  3>  Cl     0.00000000     0.00000000     0.00000000
|  4> *
|  5> %MaxCore  8000
|  6> %scf
|  7>    MaxIter 500 
|  8>    Convergence  VeryTight
|  9> end
| 10> %pal nprocs  1 
| 11> end
| 12> %method
| 13>   IntAcc 7.0
| 14>   NewNCore Cl  10  end
| 15> end
| 16> %basis 
| 17>    NewGTO   Cl
| 18>    S  6
| 19>        1          105819.00000000               0.00074236
| 20>        2           15872.00000000               0.00574732
| 21>        3            3619.65000000               0.02964876
| 22>        4            1030.80000000               0.11789980
| 23>        5             339.90800000               0.36485320
| 24>        6             124.53800000               0.58169679
| 25>    S  3
| 26>        1             124.53800000               0.13704431
| 27>        2              49.51350000               0.62313803
| 28>        3              20.80560000               0.29032791
| 29>    S  1
| 30>        1               6.46480000               1.00000000
| 31>    S  1
| 32>        1               2.52540000               1.00000000
| 33>    S  1
| 34>        1               0.53780000               1.00000000
| 35>    S  1
| 36>        1               0.19350000               1.00000000
| 37>    S  1
| 38>        1               0.04830000               1.00000000
| 39>    P  1
| 40>        1               0.04830000               1.00000000
| 41>    P  4
| 42>        1             589.78000000               0.00787333
| 43>        2             139.85000000               0.06155460
| 44>        3              44.79500000               0.27425140
| 45>        4              16.61200000               0.74989939
| 46>    P  2
| 47>        1               6.59950000               0.61476400
| 48>        2               2.71410000               0.44134160
| 49>    P  1
| 50>        1               0.95280000               1.00000000
| 51>    P  1
| 52>        1               0.35800000               1.00000000
| 53>    P  1
| 54>        1               0.12500000               1.00000000
| 55>    D  1
| 56>        1               4.80000000               1.00000000
| 57>    D  1
| 58>        1               1.20000000               1.00000000
| 59>    D  1
| 60>        1               0.30000000               1.00000000
| 61>    D  1
| 62>        1               0.72000000               1.00000000
| 63>    F  1
| 64>        1               1.40000000               1.00000000
| 65>    F  1
| 66>        1               0.35000000               1.00000000
| 67>    end
| 68> end
| 69> 
| 70>                          ****END OF INPUT****
================================================================================

                       ****************************
                       * Single Point Calculation *
                       ****************************

---------------------------------
CARTESIAN COORDINATES (ANGSTROEM)
---------------------------------
  Cl     0.000000    0.000000    0.000000

----------------------------
CARTESIAN COORDINATES (A.U.)
----------------------------
  NO LB      ZA    FRAG     MASS         X           Y           Z
   0 Cl   17.0000    0    35.453    0.000000    0.000000    0.000000

--------------------------------
INTERNAL COORDINATES (ANGSTROEM)
--------------------------------
 Cl     0   0   0     0.000000000000     0.00000000     0.00000000

---------------------------
INTERNAL COORDINATES (A.U.)
---------------------------
 Cl     0   0   0     0.000000000000     0.00000000     0.00000000

---------------------
BASIS SET INFORMATION
---------------------
There are 1 groups of distinct atoms

 Group   1 Type Cl  : 14s10p4d2f contracted to 7s6p4d2f pattern {6311111/142111/1111/11}

Atom   0Cl   basis set group =>   1
------------------------------------------------------------------------------
                           ORCA GTO INTEGRAL CALCULATION
------------------------------------------------------------------------------

                         BASIS SET STATISTICS AND STARTUP INFO

 # of primitive gaussian shells          ...   30
 # of primitive gaussian functions       ...   78
 # of contracted shells                  ...   19
 # of contracted basis functions         ...   59
 Highest angular momentum                ...    3
 Maximum contraction depth               ...    6
 Integral package used                   ... LIBINT
 Integral threshhold            Thresh   ...  1.000e-12
 Primitive cut-off              TCut     ...  1.000e-14


------------------------------ INTEGRAL EVALUATION ----------------------------


 * One electron integrals 
 Pre-screening matrix                    ... done
 Shell pair data                         ... done (   0.000 sec)

-------------------------------------------------------------------------------
                                 ORCA SCF
-------------------------------------------------------------------------------

------------
SCF SETTINGS
------------
Hamiltonian:
 Ab initio Hamiltonian  Method          .... Hartree-Fock(GTOs)


General Settings:
 Integral files         IntName         .... input
 Hartree-Fock type      HFTyp           .... UHF
 Total Charge           Charge          ....    0
 Multiplicity           Mult            ....    2
 Number of Electrons    NEL             ....   17
 Basis Dimension        Dim             ....   59
 Nuclear Repulsion      ENuc            ....      0.0000000000 Eh

Convergence Acceleration:
 DIIS                   CNVDIIS         .... on
   Start iteration      DIISMaxIt       ....    12
   Startup error        DIISStart       ....  0.200000
   # of expansion vecs  DIISMaxEq       ....     5
   Bias factor          DIISBfac        ....   1.050
   Max. coefficient     DIISMaxC        ....  10.000
 Newton-Raphson         CNVNR           .... off
 SOSCF                  CNVSOSCF        .... off
 Level Shifting         CNVShift        .... on
   Level shift para.    LevelShift      ....    0.2500
   Turn off err/grad.   ShiftErr        ....    0.0010
 Zerner damping         CNVZerner       .... off
 Static damping         CNVDamp         .... on
   Fraction old density DampFac         ....    0.7000
   Max. Damping (<1)    DampMax         ....    0.9800
   Min. Damping (>=0)   DampMin         ....    0.0000
   Turn off err/grad.   DampErr         ....    0.1000
 Fernandez-Rico         CNVRico         .... off

SCF Procedure:
 Maximum # iterations   MaxIter         ....   500
 SCF integral mode      SCFMode         .... Direct
   Integral package                     .... LIBINT
 Reset frequency        DirectResetFreq ....    20
 Integral Threshold     Thresh          ....  1.000e-12 Eh
 Primitive CutOff       TCut            ....  1.000e-14 Eh

Convergence Tolerance:
 Convergence Check Mode ConvCheckMode   .... Total+1el-Energy
 Convergence forced     ConvForced      .... 1
 Energy Change          TolE            ....  1.000e-09 Eh
 1-El. energy change                    ....  1.000e-06 Eh
 DIIS Error             TolErr          ....  1.000e-08


Diagonalization of the overlap matrix:
Smallest eigenvalue                        ... 3.231e-02
Time for diagonalization                   ...    0.001 sec
Threshold for overlap eigenvalues          ... 1.000e-08
Number of eigenvalues below threshold      ... 0
Time for construction of square roots      ...    0.003 sec
Total time needed                          ...    0.005 sec

-------------------
DFT GRID GENERATION
-------------------

General Integration Accuracy     IntAcc      ...  7.000
Radial Grid Type                 RadialGrid  ... Gauss-Chebyshev
Angular Grid (max. acc.)         AngularGrid ... Lebedev-110
Angular grid pruning method      GridPruning ... 3 (G Style)
Weight generation scheme         WeightScheme... Becke
Basis function cutoff            BFCut       ...    1.0000e-12
Integration weight cutoff        WCut        ...    1.0000e-14
Grids for H and He will be reduced by one unit

# of grid points (after initial pruning)     ...   3710 (   0.0 sec)
# of grid points (after weights+screening)   ...   3710 (   0.0 sec)
Grid point division into batches done        ...    0.0 sec
Reduced shell lists constructed in    0.0 sec

Total number of grid points                  ...     3710
Total number of batches                      ...       58
Average number of points per batch           ...       63
Average number of grid points per atom       ...     3710
Average number of shells per batch           ...    14.92 (78.50%)
Average number of basis functions per batch  ...    49.08 (83.19%)
Average number of large shells per batch     ...    14.02 (93.98%)
Average number of large basis fcns per batch ...    45.98 (93.68%)
Maximum spatial batch extension              ...  30.02, 29.70, 27.64 au
Average spatial batch extension              ...   8.31,  6.63,  6.42 au

Time for grid setup =    0.036 sec

------------------------------
INITIAL GUESS: MODEL POTENTIAL
------------------------------
Loading Hartree-Fock densities                     ... done
Calculating cut-offs                               ... done
Setting up the integral package                    ... done
Initializing the effective Hamiltonian             ... done
Starting the Coulomb interaction                   ... done (   0.0 sec)
Reading the grid                                   ... done
Mapping shells                                     ... done
Starting the XC term evaluation                    ... done (   0.0 sec)
Transforming the Hamiltonian                       ... done (   0.0 sec)
Diagonalizing the Hamiltonian                      ... done (   0.0 sec)
Back transforming the eigenvectors                 ... done (   0.0 sec)
Now organizing SCF variables                       ... done
                      ------------------
                      INITIAL GUESS DONE (   0.2 sec)
                      ------------------
--------------
SCF ITERATIONS
--------------
ITER       Energy         Delta-E        Max-DP      RMS-DP      [F,P]     Damp
               ***  Starting incremental Fock matrix formation  ***
  0   -459.4543747622   0.000000000000 0.00976328  0.00033482  0.6442896 0.7000
  1   -459.4607651422  -0.006390380013 0.00875320  0.00027104  0.4539441 0.7000
  2   -459.4656116330  -0.004846490789 0.00706651  0.00020664  0.3197905 0.7000
  3   -459.4692276434  -0.003616010317 0.00564260  0.00015763  0.2253426 0.7000
                               ***Turning on DIIS***
  4   -459.4719015450  -0.002673901673 0.00450336  0.00012110  0.1588280 0.7000
  5   -459.4752385023  -0.003336957242 0.00413248  0.00010547  0.1119732 0.7000
  6   -459.4754449486  -0.000206446378 0.01155683  0.00028756  0.0786310 0.0000
  7   -459.4789684147  -0.003523466055 0.00142201  0.00003734  0.0016373 0.0000
  8   -459.4780964469   0.000871967798 0.00124850  0.00003358  0.0009112 0.0000
  9   -459.4788935952  -0.000797148305 0.00016730  0.00000492  0.0001487 0.0000
 10   -459.4790752780  -0.000181682836 0.00003552  0.00000091  0.0000202 0.0000
 11   -459.4790461812   0.000029096825 0.00000710  0.00000024  0.0000034 0.0000
 12   -459.4790414092   0.000004772022 0.00000247  0.00000009  0.0000008 0.0000
 13   -459.4790429798  -0.000001570591 0.00000170  0.00000006  0.0000003 0.0000
 14   -459.4790427714   0.000000208415 0.00000074  0.00000002  0.0000001 0.0000
 15   -459.4790428819  -0.000000110490 0.00000026  0.00000001  0.0000000 0.0000
                            ***DIIS convergence achieved***

               *****************************************************
               *                     SUCCESS                       *
               *           SCF CONVERGED AFTER  16 CYCLES          *
               *****************************************************


----------------
TOTAL SCF ENERGY
----------------

Total Energy       :         -459.47904289 Eh          -12503.06040 eV

Components:
Nuclear Repulsion  :            0.00000000 Eh               0.00000 eV
Electronic Energy  :         -459.47904289 Eh          -12503.06040 eV
One Electron Energy:         -634.80703896 Eh          -17273.97772 eV
Two Electron Energy:          175.32799606 Eh            4770.91732 eV

Virial components:
Potential Energy   :         -918.91635457 Eh          -25004.98524 eV
Kinetic Energy     :          459.43731167 Eh           12501.92484 eV
Virial Ratio       :            2.00009083


---------------
SCF CONVERGENCE
---------------

  Last Energy change         ...   -1.1044e-08  Tolerance :   1.0000e-09
  Last MAX-Density change    ...    4.2280e-08  Tolerance :   1.0000e-08
  Last RMS-Density change    ...    1.2820e-09  Tolerance :   1.0000e-09
  Last DIIS Error            ...    5.9763e-09  Tolerance :   1.0000e-08

             **** THE GBW FILE WAS UPDATED (input.gbw) ****
             **** DENSITY FILE WAS UPDATED (input.scfp) ****
             **** ENERGY FILE WAS UPDATED (input.en.tmp) ****
----------------------
UHF SPIN CONTAMINATION
----------------------

Expectation value of <S**2>     :     0.760566
Ideal value S*(S+1) for S=0.5   :     0.750000
Deviation                       :     0.010566

             **** THE GBW FILE WAS UPDATED (input.gbw) ****
             **** DENSITY FILE WAS UPDATED (input.scfp) ****
----------------
ORBITAL ENERGIES
----------------
                 SPIN UP ORBITALS
  NO   OCC          E(Eh)            E(eV) 
   0   1.0000    -104.893759     -2854.3043 
   1   1.0000     -10.615659      -288.8668 
   2   1.0000      -8.101918      -220.4644 
   3   1.0000      -8.077849      -219.8095 
   4   1.0000      -8.077849      -219.8095 
   5   1.0000      -1.136751       -30.9326 
   6   1.0000      -0.582060       -15.8386 
   7   1.0000      -0.502695       -13.6790 
   8   1.0000      -0.502695       -13.6790 
   9   0.0000       0.109275         2.9735 
  10   0.0000       0.118898         3.2354 
  11   0.0000       0.127678         3.4743 
  12   0.0000       0.127678         3.4743 
  13   0.0000       0.489226        13.3125 
  14   0.0000       0.500515        13.6197 
  15   0.0000       0.500515        13.6197 
  16   0.0000       0.540807        14.7161 
  17   0.0000       0.540807        14.7161 
  18   0.0000       0.586930        15.9712 
  19   0.0000       0.618572        16.8322 
  20   0.0000       0.618572        16.8322 
  21   0.0000       0.993163        27.0253 
  22   0.0000       1.289470        35.0883 
  23   0.0000       1.294456        35.2239 
  24   0.0000       1.294456        35.2239 
  25   0.0000       1.309597        35.6360 
  26   0.0000       1.309597        35.6360 
  27   0.0000       1.335882        36.3512 
  28   0.0000       1.335882        36.3512 
  29   0.0000       1.607618        43.7455 
  30   0.0000       1.618780        44.0492 
  31   0.0000       1.618780        44.0492 
  32   0.0000       1.658909        45.1412 
  33   0.0000       1.658909        45.1412 
  34   0.0000       2.390348        65.0447 
  35   0.0000       2.442445        66.4623 
  36   0.0000       2.442445        66.4623 
  37   0.0000       3.965191       107.8983 
  38   0.0000       3.977070       108.2216 
  39   0.0000       3.977070       108.2216 
  40   0.0000       4.013537       109.2139 
  41   0.0000       4.013537       109.2139 
  42   0.0000       4.692573       127.6914 
  43   0.0000       4.699780       127.8875 
  44   0.0000       4.699780       127.8875 
  45   0.0000       4.721647       128.4826 
  46   0.0000       4.721647       128.4826 
  47   0.0000       4.759046       129.5002 
  48   0.0000       4.759046       129.5002 
  49   0.0000       9.833072       267.5715 
  50   0.0000      11.131309       302.8983 
  51   0.0000      11.140256       303.1418 
  52   0.0000      11.140256       303.1418 
  53   0.0000      11.167919       303.8945 
  54   0.0000      11.167919       303.8945 
  55   0.0000      21.694739       590.3439 
  56   0.0000      21.720402       591.0422 
  57   0.0000      21.720402       591.0422 
  58   0.0000     219.165825      5963.8053 

                 SPIN DOWN ORBITALS
  NO   OCC          E(Eh)            E(eV) 
   0   1.0000    -104.881893     -2853.9814 
   1   1.0000     -10.604693      -288.5684 
   2   1.0000      -8.071803      -219.6449 
   3   1.0000      -8.071803      -219.6449 
   4   1.0000      -8.052728      -219.1259 
   5   1.0000      -1.014975       -27.6189 
   6   1.0000      -0.480957       -13.0875 
   7   1.0000      -0.480957       -13.0875 
   8   0.0000      -0.041172        -1.1203 
   9   0.0000       0.114731         3.1220 
  10   0.0000       0.128606         3.4995 
  11   0.0000       0.128606         3.4995 
  12   0.0000       0.141227         3.8430 
  13   0.0000       0.542961        14.7747 
  14   0.0000       0.542961        14.7747 
  15   0.0000       0.573225        15.5983 
  16   0.0000       0.573225        15.5983 
  17   0.0000       0.584892        15.9157 
  18   0.0000       0.623944        16.9784 
  19   0.0000       0.623944        16.9784 
  20   0.0000       0.650809        17.7094 
  21   0.0000       1.020089        27.7580 
  22   0.0000       1.325730        36.0749 
  23   0.0000       1.326889        36.1065 
  24   0.0000       1.326889        36.1065 
  25   0.0000       1.330226        36.1973 
  26   0.0000       1.330226        36.1973 
  27   0.0000       1.335342        36.3365 
  28   0.0000       1.335342        36.3365 
  29   0.0000       1.662536        45.2399 
  30   0.0000       1.662536        45.2399 
  31   0.0000       1.662872        45.2491 
  32   0.0000       1.662872        45.2491 
  33   0.0000       1.663140        45.2563 
  34   0.0000       2.450981        66.6946 
  35   0.0000       2.450981        66.6946 
  36   0.0000       2.464845        67.0718 
  37   0.0000       3.989965       108.5725 
  38   0.0000       3.996434       108.7485 
  39   0.0000       3.996434       108.7485 
  40   0.0000       4.015658       109.2716 
  41   0.0000       4.015658       109.2716 
  42   0.0000       4.741007       129.0094 
  43   0.0000       4.743214       129.0694 
  44   0.0000       4.743214       129.0694 
  45   0.0000       4.749774       129.2479 
  46   0.0000       4.749774       129.2479 
  47   0.0000       4.760491       129.5396 
  48   0.0000       4.760491       129.5396 
  49   0.0000       9.850560       268.0474 
  50   0.0000      11.149141       303.3835 
  51   0.0000      11.154246       303.5225 
  52   0.0000      11.154246       303.5225 
  53   0.0000      11.169932       303.9493 
  54   0.0000      11.169932       303.9493 
  55   0.0000      21.725474       591.1802 
  56   0.0000      21.725474       591.1802 
  57   0.0000      21.738867       591.5446 
  58   0.0000     219.172133      5963.9769 

                    ********************************
                    * MULLIKEN POPULATION ANALYSIS *
                    ********************************

--------------------------------------------
MULLIKEN ATOMIC CHARGES AND SPIN POPULATIONS
--------------------------------------------
   0 Cl:    0.000000    1.000000
Sum of atomic charges         :    0.0000000
Sum of atomic spin populations:    1.0000000

-----------------------------------------------------
MULLIKEN REDUCED ORBITAL CHARGES AND SPIN POPULATIONS
-----------------------------------------------------
CHARGE
  0 Cls       :     5.995436  s :     5.995436
      pz      :     3.000974  p :    10.998681
      px      :     3.998108
      py      :     3.999599
      dz2     :     0.004544  d :     0.004564
      dxz     :     0.000020
      dyz     :     0.000000
      dx2y2   :     0.000000
      dxy     :     0.000000
      f0      :     0.000516  f :     0.001319
      f+1     :     0.000400
      f-1     :     0.000399
      f+2     :     0.000001
      f-2     :     0.000001
      f+3     :     0.000000
      f-3     :     0.000000

SPIN
  0 Cls       :     0.000928  s :     0.000928
      pz      :     0.997992  p :     0.998765
      px      :     0.001132
      py      :    -0.000359
      dz2     :    -0.000923  d :    -0.000928
      dxz     :    -0.000004
      dyz     :    -0.000000
      dx2y2   :    -0.000000
      dxy     :    -0.000000
      f0      :     0.000516  f :     0.001235
      f+1     :     0.000359
      f-1     :     0.000358
      f+2     :     0.000001
      f-2     :     0.000001
      f+3     :     0.000000
      f-3     :     0.000000


                     *******************************
                     * LOEWDIN POPULATION ANALYSIS *
                     *******************************

-------------------------------------------
LOEWDIN ATOMIC CHARGES AND SPIN POPULATIONS
-------------------------------------------
   0 Cl:    0.000000    1.000000

----------------------------------------------------
LOEWDIN REDUCED ORBITAL CHARGES AND SPIN POPULATIONS
----------------------------------------------------
CHARGE
  0 Cls       :     5.995436  s :     5.995436
      pz      :     3.000974  p :    10.998681
      px      :     3.998108
      py      :     3.999599
      dz2     :     0.004544  d :     0.004564
      dxz     :     0.000020
      dyz     :     0.000000
      dx2y2   :     0.000000
      dxy     :     0.000000
      f0      :     0.000516  f :     0.001319
      f+1     :     0.000400
      f-1     :     0.000399
      f+2     :     0.000001
      f-2     :     0.000001
      f+3     :     0.000000
      f-3     :     0.000000

SPIN
  0 Cls       :     0.000928  s :     0.000928
      pz      :     0.997992  p :     0.998765
      px      :     0.001132
      py      :    -0.000359
      dz2     :    -0.000923  d :    -0.000928
      dxz     :    -0.000004
      dyz     :    -0.000000
      dx2y2   :    -0.000000
      dxy     :    -0.000000
      f0      :     0.000516  f :     0.001235
      f+1     :     0.000359
      f-1     :     0.000358
      f+2     :     0.000001
      f-2     :     0.000001
      f+3     :     0.000000
      f-3     :     0.000000


                      *****************************
                      * MAYER POPULATION ANALYSIS *
                      *****************************

  NA   - Mulliken gross atomic population
  ZA   - Total nuclear charge
  QA   - Mulliken gross atomic charge
  VA   - Mayer's total valence
  BVA  - Mayer's bonded valence
  FA   - Mayer's free valence

  ATOM       NA         ZA         QA         VA         BVA        FA
  0 Cl    17.0000    17.0000     0.0000     1.0211     0.0000     1.0211

  Mayer bond orders larger than 0.100000


-------
TIMINGS
-------

Total SCF time: 0 days 0 hours 0 min 2 sec 

Total time                  ....       2.880 sec
Sum of individual times     ....       2.701 sec  ( 93.8%)

Fock matrix formation       ....       2.527 sec  ( 87.7%)
Diagonalization             ....       0.014 sec  (  0.5%)
Density matrix formation    ....       0.001 sec  (  0.0%)
Population analysis         ....       0.004 sec  (  0.2%)
Initial guess               ....       0.115 sec  (  4.0%)
Orbital Transformation      ....       0.000 sec  (  0.0%)
Orbital Orthonormalization  ....       0.000 sec  (  0.0%)
DIIS solution               ....       0.005 sec  (  0.2%)

------------------------------------------------------------------------------
                                ORCA  MP2 
------------------------------------------------------------------------------

Freezing NCore=10 chemical core electrons

----------
MP2 ENERGY (disk based algorithm)
----------

Dimension of the basis                    ...   59
Memory devoted to MP2                     ... 8000 MB   
Data format for buffers                   ... DOUBLE
Compression type for matrix containers    ... UNCOMPRESSED

-------------------------------
PARTIAL EXCHANGE TRANSFORMATION
-------------------------------

Transformation type                        ... two-operators
Generation of integrals (i,mue|j,nue)      ... ON
Generation of integrals (mue,kappa|nue,tau)... OFF
Generation of integrals (i,mue|a,nue)      ... OFF
Dimension of the basis                     ...   59
Number of internal alpha-MOs               ...    4 (   5-   8)
Number of internal beta-MOs                ...    3 (   5-   7)
Pair cutoff                                ... 1.000e-14 Eh
Number of AO pairs in the trafo            ... 1770
Total Number of distinct AO pairs          ... 1770
Memory devoted for trafo                   ... 8000.0 MB 
Max. Number of MO pairs treated together   ... 301228      
Number Format for Storage                  ... Double (8 Byte)
Integral package used                      ... LIBINT

Starting integral evaluation:
    ... done with AO integral generation
Closing buffer AOK[aa] ( 0.00 GB; CompressionRatio= 1.05)
Closing buffer AOK[bb] ( 0.00 GB; CompressionRatio= 0.85)
[...]
  BAS[ATNO][  8].a[ 11] =         3.919000000000;     BAS[ATNO][  8].d[ 11] =        -0.009951338509;
  BAS[ATNO][  8].a[ 12] =         1.765000000000;     BAS[ATNO][  8].d[ 12] =         0.034481675545;
  BAS[ATNO][  8].a[ 13] =         0.720700000000;     BAS[ATNO][  8].d[ 13] =         0.347621736428;
  BAS[ATNO][  8].a[ 14] =         0.283900000000;     BAS[ATNO][  8].d[ 14] =         0.458141882665;
  BAS[ATNO][  8].a[ 15] =         0.106000000000;     BAS[ATNO][  8].d[ 15] =         0.291265260046;
  BAS[ATNO][  8].a[ 16] =         0.037600000000;     BAS[ATNO][  8].d[ 16] =         0.069911602825;

  // Basis function  10 L = p
  InitBFNGauss(BAS[ATNO][  9]);
  BAS[ATNO][  9].l  = 1;
  BAS[ATNO][  9].ng = 17;
  BAS[ATNO][  9].a[  0] =      1703.000000000000;     BAS[ATNO][  9].d[  0] =         0.000031643826;
  BAS[ATNO][  9].a[  1] =       403.600000000000;     BAS[ATNO][  9].d[  1] =         0.000270526385;
  BAS[ATNO][  9].a[  2] =       130.300000000000;     BAS[ATNO][  9].d[  2] =         0.001431889037;
  BAS[ATNO][  9].a[  3] =        49.050000000000;     BAS[ATNO][  9].d[  3] =         0.005357527261;
  BAS[ATNO][  9].a[  4] =        20.260000000000;     BAS[ATNO][  9].d[  4] =         0.014398377279;
  BAS[ATNO][  9].a[  5] =         8.787000000000;     BAS[ATNO][  9].d[  5] =         0.025386219055;
  BAS[ATNO][  9].a[  6] =         3.919000000000;     BAS[ATNO][  9].d[  6] =         0.027554012833;
  BAS[ATNO][  9].a[  7] =       130.300000000000;     BAS[ATNO][  9].d[  7] =        -0.000030258790;
  BAS[ATNO][  9].a[  8] =        49.050000000000;     BAS[ATNO][  9].d[  8] =        -0.000176449385;
  BAS[ATNO][  9].a[  9] =        20.260000000000;     BAS[ATNO][  9].d[  9] =        -0.001270271005;
  BAS[ATNO][  9].a[ 10] =         8.787000000000;     BAS[ATNO][  9].d[ 10] =        -0.002828403001;
  BAS[ATNO][  9].a[ 11] =         3.919000000000;     BAS[ATNO][  9].d[ 11] =        -0.007266824790;
  BAS[ATNO][  9].a[ 12] =         1.765000000000;     BAS[ATNO][  9].d[ 12] =         0.025179757921;
  BAS[ATNO][  9].a[ 13] =         0.720700000000;     BAS[ATNO][  9].d[ 13] =        -0.189788270211;
  BAS[ATNO][  9].a[ 14] =         0.283900000000;     BAS[ATNO][  9].d[ 14] =         0.167895411566;
  BAS[ATNO][  9].a[ 15] =         0.106000000000;     BAS[ATNO][  9].d[ 15] =        -0.864918041763;
  BAS[ATNO][  9].a[ 16] =         0.037600000000;     BAS[ATNO][  9].d[ 16] =         1.428842601565;

  // Basis function  11 L = p
  InitBFNGauss(BAS[ATNO][ 10]);
  BAS[ATNO][ 10].l  = 1;
  BAS[ATNO][ 10].ng = 17;
  BAS[ATNO][ 10].a[  0] =      1703.000000000000;     BAS[ATNO][ 10].d[  0] =         0.000064822915;
  BAS[ATNO][ 10].a[  1] =       403.600000000000;     BAS[ATNO][ 10].d[  1] =         0.000554177903;
  BAS[ATNO][ 10].a[  2] =       130.300000000000;     BAS[ATNO][ 10].d[  2] =         0.002933249055;
  BAS[ATNO][ 10].a[  3] =        49.050000000000;     BAS[ATNO][ 10].d[  3] =         0.010974985750;
  BAS[ATNO][ 10].a[  4] =        20.260000000000;     BAS[ATNO][ 10].d[  4] =         0.029495320835;
  BAS[ATNO][ 10].a[  5] =         8.787000000000;     BAS[ATNO][ 10].d[  5] =         0.052004101663;
  BAS[ATNO][ 10].a[  6] =         3.919000000000;     BAS[ATNO][ 10].d[  6] =         0.056444864101;
  BAS[ATNO][ 10].a[  7] =       130.300000000000;     BAS[ATNO][ 10].d[  7] =         0.000178921016;
  BAS[ATNO][ 10].a[  8] =        49.050000000000;     BAS[ATNO][ 10].d[  8] =         0.001043349832;
  BAS[ATNO][ 10].a[  9] =        20.260000000000;     BAS[ATNO][ 10].d[  9] =         0.007511145696;
  BAS[ATNO][ 10].a[ 10] =         8.787000000000;     BAS[ATNO][ 10].d[ 10] =         0.016724420959;
  BAS[ATNO][ 10].a[ 11] =         3.919000000000;     BAS[ATNO][ 10].d[ 11] =         0.042968925145;
  BAS[ATNO][ 10].a[ 12] =         1.765000000000;     BAS[ATNO][ 10].d[ 12] =        -0.148888567503;
  BAS[ATNO][ 10].a[ 13] =         0.720700000000;     BAS[ATNO][ 10].d[ 13] =         0.110828685101;
  BAS[ATNO][ 10].a[ 14] =         0.283900000000;     BAS[ATNO][ 10].d[ 14] =        -1.474204644147;
  BAS[ATNO][ 10].a[ 15] =         0.106000000000;     BAS[ATNO][ 10].d[ 15] =         2.215394273240;
  BAS[ATNO][ 10].a[ 16] =         0.037600000000;     BAS[ATNO][ 10].d[ 16] =        -0.851773742453;

  // Basis function  12 L = p
  InitBFNGauss(BAS[ATNO][ 11]);
  BAS[ATNO][ 11].l  = 1;
  BAS[ATNO][ 11].ng = 17;
  BAS[ATNO][ 11].a[  0] =      1703.000000000000;     BAS[ATNO][ 11].d[  0] =         0.000202881459;
  BAS[ATNO][ 11].a[  1] =       403.600000000000;     BAS[ATNO][ 11].d[  1] =         0.001734454868;
  BAS[ATNO][ 11].a[  2] =       130.300000000000;     BAS[ATNO][ 11].d[  2] =         0.009180423961;
  BAS[ATNO][ 11].a[  3] =        49.050000000000;     BAS[ATNO][ 11].d[  3] =         0.034349289905;
  BAS[ATNO][ 11].a[  4] =        20.260000000000;     BAS[ATNO][ 11].d[  4] =         0.092313862567;
  BAS[ATNO][ 11].a[  5] =         8.787000000000;     BAS[ATNO][ 11].d[  5] =         0.162761392589;
  BAS[ATNO][ 11].a[  6] =         3.919000000000;     BAS[ATNO][ 11].d[  6] =         0.176660001648;
  BAS[ATNO][ 11].a[  7] =       130.300000000000;     BAS[ATNO][ 11].d[  7] =        -0.000415292313;
  BAS[ATNO][ 11].a[  8] =        49.050000000000;     BAS[ATNO][ 11].d[  8] =        -0.002421711958;
  BAS[ATNO][ 11].a[  9] =        20.260000000000;     BAS[ATNO][ 11].d[  9] =        -0.017434067452;
  BAS[ATNO][ 11].a[ 10] =         8.787000000000;     BAS[ATNO][ 11].d[ 10] =        -0.038818935873;
  BAS[ATNO][ 11].a[ 11] =         3.919000000000;     BAS[ATNO][ 11].d[ 11] =        -0.099734869973;
  BAS[ATNO][ 11].a[ 12] =         1.765000000000;     BAS[ATNO][ 11].d[ 12] =         0.345584206966;
  BAS[ATNO][ 11].a[ 13] =         0.720700000000;     BAS[ATNO][ 11].d[ 13] =        -2.299147575297;
  BAS[ATNO][ 11].a[ 14] =         0.283900000000;     BAS[ATNO][ 11].d[ 14] =         2.776734809979;
  BAS[ATNO][ 11].a[ 15] =         0.106000000000;     BAS[ATNO][ 11].d[ 15] =        -1.475529492984;
  BAS[ATNO][ 11].a[ 16] =         0.037600000000;     BAS[ATNO][ 11].d[ 16] =         0.436805324908;

  // Basis function  13 L = p
  InitBFNGauss(BAS[ATNO][ 12]);
  BAS[ATNO][ 12].l  = 1;
  BAS[ATNO][ 12].ng = 17;
  BAS[ATNO][ 12].a[  0] =      1703.000000000000;     BAS[ATNO][ 12].d[  0] =        -0.000042651854;
  BAS[ATNO][ 12].a[  1] =       403.600000000000;     BAS[ATNO][ 12].d[  1] =        -0.000364635177;
  BAS[ATNO][ 12].a[  2] =       130.300000000000;     BAS[ATNO][ 12].d[  2] =        -0.001930004394;
  BAS[ATNO][ 12].a[  3] =        49.050000000000;     BAS[ATNO][ 12].d[  3] =        -0.007221265676;
  BAS[ATNO][ 12].a[  4] =        20.260000000000;     BAS[ATNO][ 12].d[  4] =        -0.019407182187;
  BAS[ATNO][ 12].a[  5] =         8.787000000000;     BAS[ATNO][ 12].d[  5] =        -0.034217396079;
  BAS[ATNO][ 12].a[  6] =         3.919000000000;     BAS[ATNO][ 12].d[  6] =        -0.037139306512;
  BAS[ATNO][ 12].a[  7] =       130.300000000000;     BAS[ATNO][ 12].d[  7] =         0.003709225137;
  BAS[ATNO][ 12].a[  8] =        49.050000000000;     BAS[ATNO][ 12].d[  8] =         0.021629764358;
  BAS[ATNO][ 12].a[  9] =        20.260000000000;     BAS[ATNO][ 12].d[  9] =         0.155714130082;
  BAS[ATNO][ 12].a[ 10] =         8.787000000000;     BAS[ATNO][ 12].d[ 10] =         0.346715237088;
  BAS[ATNO][ 12].a[ 11] =         3.919000000000;     BAS[ATNO][ 12].d[ 11] =         0.890792040300;
  BAS[ATNO][ 12].a[ 12] =         1.765000000000;     BAS[ATNO][ 12].d[ 12] =        -3.086620165054;
  BAS[ATNO][ 12].a[ 13] =         0.720700000000;     BAS[ATNO][ 12].d[ 13] =         3.100216235685;
  BAS[ATNO][ 12].a[ 14] =         0.283900000000;     BAS[ATNO][ 12].d[ 14] =        -1.787251595704;
  BAS[ATNO][ 12].a[ 15] =         0.106000000000;     BAS[ATNO][ 12].d[ 15] =         0.756241777163;
  BAS[ATNO][ 12].a[ 16] =         0.037600000000;     BAS[ATNO][ 12].d[ 16] =        -0.221280576254;

  // Basis function  14 L = d
  InitBFNGauss(BAS[ATNO][ 13]);
  BAS[ATNO][ 13].l  = 2;
  BAS[ATNO][ 13].ng = 4;
  BAS[ATNO][ 13].a[  0] =         5.191000000000;     BAS[ATNO][ 13].d[  0] =         0.027301475429;
  BAS[ATNO][ 13].a[  1] =         1.276000000000;     BAS[ATNO][ 13].d[  1] =         0.212815829300;
  BAS[ATNO][ 13].a[  2] =         0.583000000000;     BAS[ATNO][ 13].d[  2] =        -0.148980056957;
  BAS[ATNO][ 13].a[  3] =         0.243000000000;     BAS[ATNO][ 13].d[  3] =         1.023501689701;

  // Basis function  15 L = d
  InitBFNGauss(BAS[ATNO][ 14]);
  BAS[ATNO][ 14].l  = 2;
  BAS[ATNO][ 14].ng = 4;
  BAS[ATNO][ 14].a[  0] =         5.191000000000;     BAS[ATNO][ 14].d[  0] =         0.114626268065;
  BAS[ATNO][ 14].a[  1] =         1.276000000000;     BAS[ATNO][ 14].d[  1] =         0.095287574291;
  BAS[ATNO][ 14].a[  2] =         0.583000000000;     BAS[ATNO][ 14].d[  2] =         1.288397195538;
  BAS[ATNO][ 14].a[  3] =         0.243000000000;     BAS[ATNO][ 14].d[  3] =        -1.049563479409;

  // Basis function  16 L = d
  InitBFNGauss(BAS[ATNO][ 15]);
  BAS[ATNO][ 15].l  = 2;
  BAS[ATNO][ 15].ng = 4;
  BAS[ATNO][ 15].a[  0] =         5.191000000000;     BAS[ATNO][ 15].d[  0] =        -0.165919558530;
  BAS[ATNO][ 15].a[  1] =         1.276000000000;     BAS[ATNO][ 15].d[  1] =        -1.602069689261;
  BAS[ATNO][ 15].a[  2] =         0.583000000000;     BAS[ATNO][ 15].d[  2] =         2.003992247563;
  BAS[ATNO][ 15].a[  3] =         0.243000000000;     BAS[ATNO][ 15].d[  3] =        -0.775554615283;

  // Basis function  17 L = d
  InitBFNGauss(BAS[ATNO][ 16]);
  BAS[ATNO][ 16].l  = 2;
  BAS[ATNO][ 16].ng = 4;
  BAS[ATNO][ 16].a[  0] =         5.191000000000;     BAS[ATNO][ 16].d[  0] =        -1.180509087054;
  BAS[ATNO][ 16].a[  1] =         1.276000000000;     BAS[ATNO][ 16].d[  1] =         1.360840603534;
  BAS[ATNO][ 16].a[  2] =         0.583000000000;     BAS[ATNO][ 16].d[  2] =        -1.045484775895;
  BAS[ATNO][ 16].a[  3] =         0.243000000000;     BAS[ATNO][ 16].d[  3] =         0.347384526314;

  // Basis function  18 L = f
  InitBFNGauss(BAS[ATNO][ 17]);
  BAS[ATNO][ 17].l  = 3;
  BAS[ATNO][ 17].ng = 2;
  BAS[ATNO][ 17].a[  0] =         0.423000000000;     BAS[ATNO][ 17].d[  0] =         1.065173234903;
  BAS[ATNO][ 17].a[  1] =         1.089000000000;     BAS[ATNO][ 17].d[  1] =        -0.112257261910;

  // Basis function  19 L = f
  InitBFNGauss(BAS[ATNO][ 18]);
  BAS[ATNO][ 18].l  = 3;
  BAS[ATNO][ 18].ng = 2;
  BAS[ATNO][ 18].a[  0] =         0.423000000000;     BAS[ATNO][ 18].d[  0] =        -0.689426382582;
  BAS[ATNO][ 18].a[  1] =         1.089000000000;     BAS[ATNO][ 18].d[  1] =         1.263843765860;

  // Basis function  20 L = g
  InitBFNGauss(BAS[ATNO][ 19]);
  BAS[ATNO][ 19].l  = 4;
  BAS[ATNO][ 19].ng = 1;
  BAS[ATNO][ 19].a[  0] =         0.827000000000;     BAS[ATNO][ 19].d[  0] =         1.000000000000;

-------------------------------------------
RADIAL EXPECTATION VALUES <R**-3> TO <R**3>
-------------------------------------------
   0 :     0.000000   552.934660    16.559602     0.091296     0.011200     0.001732
   1 :     0.000000    45.197456     3.313950     0.441794     0.231295     0.139289
   2 :     0.000000     4.218340     0.853053     1.602001     3.012906     6.537785
   3 :     0.000000     0.327453     0.235862     4.986591    26.612499   149.774995
   4 :     0.000000     1.329118     0.452757     3.285991    13.582882    67.359213
   5 :     0.000000    10.549233     1.042209     1.912826     5.503042    22.048853
   6 :     0.000000    17.611504     2.043680     0.978623     1.911334     6.748093
   7 :   100.403700    14.287272     3.202979     0.405384     0.203864     0.123163
   8 :   100.403700    14.287272     3.202979     0.405384     0.203864     0.123163
   9 :   100.403700    14.287272     3.202979     0.405384     0.203864     0.123163
  10 :     5.740665     1.043500     0.679592     2.029467     5.115163    15.795129
  11 :     5.740665     1.043500     0.679592     2.029467     5.115163    15.795129
  12 :     5.740665     1.043500     0.679592     2.029467     5.115163    15.795129
  13 :     0.338684     0.080064     0.180096     6.532380    45.540745   333.150291
  14 :     0.338684     0.080064     0.180096     6.532380    45.540745   333.150290
  15 :     0.338684     0.080064     0.180096     6.532380    45.540745   333.150290
  16 :     2.379715     0.449781     0.385976     3.899829    19.049174   111.785484
  17 :     2.379715     0.449781     0.385976     3.899829    19.049174   111.785484
  18 :     2.379715     0.449781     0.385976     3.899829    19.049174   111.785484
  19 :    10.784285     1.564390     0.736954     2.306117     7.646198    35.170298
  20 :    10.784285     1.564390     0.736954     2.306117     7.646198    35.170298
  21 :    10.784285     1.564390     0.736954     2.306117     7.646198    35.170298
  22 :    19.943013     3.685611     1.337283     1.313248     2.824030    10.106673
  23 :    19.943013     3.685611     1.337283     1.313248     2.824030    10.106673
  24 :    19.943013     3.685611     1.337283     1.313248     2.824030    10.106673
  25 :     0.203851     0.259391     0.456921     2.519207     6.989802   104.236093
  26 :     0.203851     0.259391     0.456921     2.519207     6.989802   104.236093
  27 :     0.203851     0.259391     0.456921     2.519207     6.989802   104.236093
  28 :     0.203851     0.259391     0.456921     2.519207     6.989802   104.236093
  29 :     0.203851     0.259391     0.456921     2.519207     6.989802   104.236093
  30 :     0.765645     0.623527     0.683416     1.951191     4.880812    72.611013
  31 :     0.765645     0.623527     0.683416     1.951191     4.880812    72.611013
  32 :     0.765645     0.623527     0.683416     1.951191     4.880812    72.611013
  33 :     0.765645     0.623527     0.683416     1.951191     4.880812    72.611013
  34 :     0.765645     0.623527     0.683416     1.951191     4.880812    72.611013
  35 :     1.960822     1.200088     0.940484     1.504902     3.094531    40.035300
  36 :     1.960822     1.200088     0.940484     1.504902     3.094531    40.035300
  37 :     1.960822     1.200088     0.940484     1.504902     3.094531    40.035300
  38 :     1.960822     1.200088     0.940484     1.504902     3.094531    40.035300
  39 :     1.960822     1.200088     0.940484     1.504902     3.094531    40.035300
  40 :     9.572459     3.751394     1.738197     0.798638     0.995456     9.634527
  41 :     9.572459     3.751394     1.738197     0.798638     0.995456     9.634527
  42 :     9.572459     3.751394     1.738197     0.798638     0.995456     9.634527
  43 :     9.572459     3.751394     1.738197     0.798638     0.995456     9.634527
  44 :     9.572459     3.751394     1.738197     0.798638     0.995456     9.634527
  45 :     0.111713     0.218501     0.454540     2.315827     5.623029    99.863638
  46 :     0.111713     0.218501     0.454540     2.315827     5.623029    99.863638
  47 :     0.111713     0.218501     0.454540     2.315827     5.623029    99.863638
  48 :     0.111713     0.218501     0.454540     2.315827     5.623029    99.863638
  49 :     0.111713     0.218501     0.454540     2.315827     5.623029    99.863638
  50 :     0.111713     0.218501     0.454540     2.315827     5.623029    99.863638
  51 :     0.111713     0.218501     0.454540     2.315827     5.623029    99.863638
  52 :     0.603498     0.645499     0.761143     1.499596     2.636156    38.335811
  53 :     0.603498     0.645499     0.761143     1.499596     2.636156    38.335811
  54 :     0.603498     0.645499     0.761143     1.499596     2.636156    38.335811
  55 :     0.603498     0.645499     0.761143     1.499596     2.636156    38.335811
  56 :     0.603498     0.645499     0.761143     1.499596     2.636156    38.335811
  57 :     0.603498     0.645499     0.761143     1.499596     2.636156    38.335811
  58 :     0.603498     0.645499     0.761143     1.499596     2.636156    38.335811
  59 :     0.243836     0.367556     0.589688     1.782612     3.325272    45.265833
  60 :     0.243836     0.367556     0.589688     1.782612     3.325272    45.265833
  61 :     0.243836     0.367556     0.589688     1.782612     3.325272    45.265833
  62 :     0.243836     0.367556     0.589688     1.782612     3.325272    45.265833
  63 :     0.243836     0.367556     0.589688     1.782612     3.325272    45.265833
  64 :     0.243836     0.367556     0.589688     1.782612     3.325272    45.265833
  65 :     0.243836     0.367556     0.589688     1.782612     3.325272    45.265833
  66 :     0.243836     0.367556     0.589688     1.782612     3.325272    45.265833
  67 :     0.243836     0.367556     0.589688     1.782612     3.325272    45.265833
-------
TIMINGS
-------

Total SCF time: 0 days 0 hours 0 min 5 sec 

Total time                  ....       5.077 sec
Sum of individual times     ....       4.887 sec  ( 96.3%)

Fock matrix formation       ....       4.719 sec  ( 92.9%)
Diagonalization             ....       0.003 sec  (  0.1%)
Density matrix formation    ....       0.000 sec  (  0.0%)
Population analysis         ....       0.002 sec  (  0.0%)
Initial guess               ....       0.119 sec  (  2.4%)
Orbital Transformation      ....       0.000 sec  (  0.0%)
Orbital Orthonormalization  ....       0.000 sec  (  0.0%)
DIIS solution               ....       0.001 sec  (  0.0%)
SOSCF solution              ....       0.003 sec  (  0.1%)

-------------------------   --------------------
FINAL SINGLE POINT ENERGY      -459.576353076882
-------------------------   --------------------


                            ***************************************
                            *     ORCA property calculations      *
                            ***************************************

                                    ---------------------
                                    Active property flags
                                    ---------------------
   (+) Dipole Moment


------------------------------------------------------------------------------
                       ORCA ELECTRIC PROPERTIES CALCULATION
------------------------------------------------------------------------------

Dipole Moment Calculation                       ... on
Quadrupole Moment Calculation                   ... off
Polarizability Calculation                      ... off
GBWName                                         ... input.gbw
Electron density file                           ... input.scfp
The origin for moment calculation is the CENTER OF MASS  = ( 0.000000,  0.000000  0.000000)

-------------
DIPOLE MOMENT
-------------
                                X             Y             Z
Electronic contribution:     -0.00000      -0.00000      -0.00000
Nuclear contribution   :      0.00000       0.00000       0.00000
                        -----------------------------------------
Total Dipole Moment    :     -0.00000      -0.00000      -0.00000
                        -----------------------------------------
Magnitude (a.u.)       :      0.00000
Magnitude (Debye)      :      0.00000



--------------------
Rotational spectrum 
--------------------
 
Rotational constants in cm-1:     0.000000     0.000000     0.000000 
Rotational constants in MHz :     0.000000     0.000000     0.000000 

 Dipole components along the rotational axes: 
x,y,z [a.u.] :    -0.000000    -0.000000    -0.000000 
x,y,z [Debye]:    -0.000000    -0.000000    -0.000000 

 

Timings for individual modules:

Sum of individual times         ...        5.435 sec (=   0.091 min)
GTO integral calculation        ...        0.322 sec (=   0.005 min)   5.9 %
SCF iterations                  ...        5.112 sec (=   0.085 min)  94.1 %
                             ****ORCA TERMINATED NORMALLY****
TOTAL RUN TIME: 0 days 0 hours 0 minutes 5 seconds 646 msec
