
                                 *****************
                                 * O   R   C   A *
                                 *****************

           --- An Ab Initio, DFT and Semiempirical electronic structure package ---

                  #######################################################
                  #                        -***-                        #
                  #          Department of theory and spectroscopy      #
                  #               Directorship: Frank Neese             #
                  #        Max Planck Institute fuer Kohlenforschung    #
                  #                Kaiser Wilhelm Platz 1               #
                  #                 D-45470 Muelheim/Ruhr               #
                  #                      Germany                        #
                  #                                                     #
                  #                  All rights reserved                #
                  #                        -***-                        #
                  #######################################################


                         Program Version 4.2.0 -  RELEASE  -


 With contributions from (in alphabetic order):
   Daniel Aravena         : Magnetic Suceptibility
   Michael Atanasov       : Ab Initio Ligand Field Theory (pilot matlab implementation)
   Alexander A. Auer      : GIAO ZORA, VPT2
   Ute Becker             : Parallelization
   Giovanni Bistoni       : ED, misc. LED, open-shell LED, HFLED
   Martin Brehm           : Molecular dynamics
   Dmytro Bykov           : SCF Hessian
   Vijay G. Chilkuri      : MRCI spin determinant printing, contributions to CSF-ICE
   Dipayan Datta          : RHF DLPNO-CCSD density
   Achintya Kumar Dutta   : EOM-CC, STEOM-CC
   Dmitry Ganyushin       : Spin-Orbit,Spin-Spin,Magnetic field MRCI
   Miquel Garcia          : C-PCM Hessian, Gaussian charge scheme
   Yang Guo               : DLPNO-NEVPT2, CIM, IAO-localization
   Andreas Hansen         : Spin unrestricted coupled pair/coupled cluster methods
   Benjamin Helmich-Paris : CASSCF linear response (MC-RPA)
   Lee Huntington         : MR-EOM, pCC
   Robert Izsak           : Overlap fitted RIJCOSX, COSX-SCS-MP3, EOM
   Christian Kollmar      : KDIIS, OOCD, Brueckner-CCSD(T), CCSD density
   Simone Kossmann        : Meta GGA functionals, TD-DFT gradient, OOMP2, MP2 Hessian
   Martin Krupicka        : AUTO-CI
   Lucas Lang             : DCDCAS
   Dagmar Lenk            : GEPOL surface, SMD
   Dimitrios Liakos       : Extrapolation schemes; Compound Job, initial MDCI parallelization
   Dimitrios Manganas     : Further ROCIS development; embedding schemes
   Dimitrios Pantazis     : SARC Basis sets
   Taras Petrenko         : DFT Hessian,TD-DFT gradient, ASA, ECA, R-Raman, ABS, FL, XAS/XES, NRVS
   Peter Pinski           : DLPNO-MP2, DLPNO-MP2 Gradient
   Christoph Reimann      : Effective Core Potentials
   Marius Retegan         : Local ZFS, SOC
   Christoph Riplinger    : Optimizer, TS searches, QM/MM, DLPNO-CCSD(T), (RO)-DLPNO pert. Triples
   Tobias Risthaus        : Range-separated hybrids, TD-DFT gradient, RPA, STAB
   Michael Roemelt        : Original ROCIS implementation
   Masaaki Saitow         : Open-shell DLPNO-CCSD energy and density
   Barbara Sandhoefer     : DKH picture change effects
   Avijit Sen             : IP-ROCIS
   Kantharuban Sivalingam : CASSCF convergence, NEVPT2, FIC-MRCI
   Bernardo de Souza      : ESD, SOC TD-DFT
   Georgi Stoychev        : AutoAux, RI-MP2 NMR
   Willem Van den Heuvel  : Paramagnetic NMR
   Boris Wezisla          : Elementary symmetry handling
   Frank Wennmohs         : Technical directorship


 We gratefully acknowledge several colleagues who have allowed us to
 interface, adapt or use parts of their codes:
   Stefan Grimme, W. Hujo, H. Kruse,             : VdW corrections, initial TS optimization,
                  C. Bannwarth                     DFT functionals, gCP, sTDA/sTD-DF
   Ed Valeev, F. Pavosevic, A. Kumar             : LibInt (2-el integral package), F12 methods
   Garnet Chan, S. Sharma, J. Yang, R. Olivares  : DMRG
   Ulf Ekstrom                                   : XCFun DFT Library
   Mihaly Kallay                                 : mrcc  (arbitrary order and MRCC methods)
   Andreas Klamt, Michael Diedenhofen            : otool_cosmo (COSMO solvation model)
   Jiri Pittner, Ondrej Demel                    : Mk-CCSD
   Frank Weinhold                                : gennbo (NPA and NBO analysis)
   Christopher J. Cramer and Donald G. Truhlar   : smd solvation model
   Lars Goerigk                                  : TD-DFT with DH, B97 family of functionals
   V. Asgeirsson, H. Jonsson                     : NEB implementation
   FAccTs GmbH                                   : IRC, NEB, NEB-TS, Multilevel, MM, QM/MM, CI optimization
   S Lehtola, MJT Oliveira, MAL Marques          : LibXC Library


 Your calculation uses the libint2 library for the computation of 2-el integrals
 For citations please refer to: http://libint.valeyev.net

 Your ORCA version has been built with support for libXC version: 4.2.3
 For citations please refer to: https://tddft.org/programs/libxc/

 This ORCA versions uses:
   CBLAS   interface :  Fast vector & matrix operations
   LAPACKE interface :  Fast linear algebra routines
   SCALAPACK package :  Parallel linear algebra routines


----- Orbital basis set information -----
Your calculation utilizes the basis: def2-SVP
   F. Weigend and R. Ahlrichs, Phys. Chem. Chem. Phys. 7, 3297 (2005).

================================================================================
                                        WARNINGS
                       Please study these warnings very carefully!
================================================================================


WARNING: Geometry Optimization
  ===> : Switching off AutoStart
         For restart on a previous wavefunction, please use MOREAD

INFO   : the flag for use of LIBINT has been found!

================================================================================
                                       INPUT FILE
================================================================================
NAME = input.com
|  1> ! B3LYP/G Grid5   TightOpt  Freq  
|  2> *xyz  0 1
|  3>  O      0.00000000     0.00000000     0.00000000
|  4>  H      0.96854000     0.00000000     0.00000000
|  5>  H     -0.22812000     0.00000000    -0.94129000
|  6> *
|  7> %MaxCore  8000
|  8> %scf
|  9>    MaxIter 500 
| 10>    Convergence  VeryTight
| 11> end
| 12> %pal nprocs  1 
| 13> end
| 14> %method
| 15>   IntAcc 7.0
| 16> end
| 17> %geom
| 18>   Calc_Hess true
| 19>   Recalc_Hess 5 
| 20> end
| 21> %freq  Temp  273.15, 298.15
| 22> end
| 23> %basis 
| 24>    NewGTO   H
| 25>    S  3
| 26>        1              18.73113696               0.03349460
| 27>        2               2.82539437               0.23472695
| 28>        3               0.64012169               0.81375733
| 29>    S  1
| 30>        1               0.16127776               1.00000000
| 31>    P  1
| 32>        1               1.10000000               1.00000000
| 33>    end
| 34>    NewGTO   O
| 35>    S  6
| 36>        1            5484.67166000               0.00183107
| 37>        2             825.23494600               0.01395017
| 38>        3             188.04695800               0.06844508
| 39>        4              52.96450000               0.23271434
| 40>        5              16.89757040               0.47019290
| 41>        6               5.79963534               0.35852085
| 42>    S  3
| 43>        1              15.53961625              -0.11077755
| 44>        2               3.59993359              -0.14802626
| 45>        3               1.01376175               1.13076701
| 46>    P  3
| 47>        1              15.53961625               0.07087427
| 48>        2               3.59993359               0.33975284
| 49>        3               1.01376175               0.72715858
| 50>    S  1
| 51>        1               0.27000582               1.00000000
| 52>    P  1
| 53>        1               0.27000582               1.00000000
| 54>    D  1
| 55>        1               1.60000000               1.00000000
| 56>    D  1
| 57>        1               0.40000000               1.00000000
| 58>    F  1
| 59>        1               1.40000000               1.00000000
| 60>    end
| 61> end
| 62> 
| 63>                          ****END OF INPUT****
================================================================================

                       *****************************
                       * Geometry Optimization Run *
                       *****************************

Geometry optimization settings:
Update method            Update   .... BFGS
Choice of coordinates    CoordSys .... Z-matrix Internals
Initial Hessian          InHess   .... Almoef's Model

Convergence Tolerances:
Energy Change            TolE     ....  1.0000e-06 Eh
Max. Gradient            TolMAXG  ....  1.0000e-04 Eh/bohr
RMS Gradient             TolRMSG  ....  3.0000e-05 Eh/bohr
Max. Displacement        TolMAXD  ....  1.0000e-03 bohr
RMS Displacement         TolRMSD  ....  6.0000e-04 bohr
Strict Convergence                ....  False
------------------------------------------------------------------------------
                        ORCA OPTIMIZATION COORDINATE SETUP
------------------------------------------------------------------------------

The optimization will be done in new redundant internal coordinates
Making redundant internal coordinates   ...  (new redundants) done
Evaluating the initial hessian          ...  (Is done on the fly) done
Evaluating the coordinates              ...  done
Calculating the B-matrix                .... done
Calculating the G-matrix                .... done
Diagonalizing the G-matrix              .... done
The first mode is                       ....    0
The number of degrees of freedom        ....    3

    -----------------------------------------------------------------
                    Redundant Internal Coordinates


    -----------------------------------------------------------------
         Definition                    Initial Value    d2E/dq (diagonal element)
    -----------------------------------------------------------------
      1. B(H   1,O   0)                  0.9685         0.000000   
      2. B(H   2,O   0)                  0.9685         0.000000   
      3. A(H   1,O   0,H   2)          103.6229         0.000000   
    -----------------------------------------------------------------

Number of atoms                         .... 3
Number of degrees of freedom            .... 3

         *************************************************************
         *                GEOMETRY OPTIMIZATION CYCLE   1            *
         *************************************************************
---------------------------------
CARTESIAN COORDINATES (ANGSTROEM)
---------------------------------
  O      0.000000    0.000000    0.000000
  H      0.968540    0.000000    0.000000
  H     -0.228120    0.000000   -0.941290

----------------------------
CARTESIAN COORDINATES (A.U.)
----------------------------
  NO LB      ZA    FRAG     MASS         X           Y           Z
   0 O     8.0000    0    15.999    0.000000    0.000000    0.000000
   1 H     1.0000    0     1.008    1.830275    0.000000    0.000000
   2 H     1.0000    0     1.008   -0.431084    0.000000   -1.778780

--------------------------------
INTERNAL COORDINATES (ANGSTROEM)
--------------------------------
 O      0   0   0     0.000000000000     0.00000000     0.00000000
 H      1   0   0     0.968540000000     0.00000000     0.00000000
 H      1   2   0     0.968537866322   103.62288333     0.00000000

---------------------------
INTERNAL COORDINATES (A.U.)
---------------------------
 O      0   0   0     0.000000000000     0.00000000     0.00000000
 H      1   0   0     1.830275349748     0.00000000     0.00000000
 H      1   2   0     1.830271317681   103.62288333     0.00000000

---------------------
BASIS SET INFORMATION
---------------------
There are 2 groups of distinct atoms

 Group   1 Type O   : 10s4p2d1f contracted to 3s2p2d1f pattern {631/31/11/1}
 Group   2 Type H   : 4s1p contracted to 2s1p pattern {31/1}

Atom   0O    basis set group =>   1
Atom   1H    basis set group =>   2
Atom   2H    basis set group =>   2
------------------------------------------------------------------------------
                           ORCA GTO INTEGRAL CALCULATION
------------------------------------------------------------------------------

                         BASIS SET STATISTICS AND STARTUP INFO

 # of primitive gaussian shells          ...   27
 # of primitive gaussian functions       ...   53
 # of contracted shells                  ...   14
 # of contracted basis functions         ...   36
 Highest angular momentum                ...    3
 Maximum contraction depth               ...    6
 Integral package used                   ... LIBINT
 Integral threshhold            Thresh   ...  1.000e-12
 Primitive cut-off              TCut     ...  1.000e-14


------------------------------ INTEGRAL EVALUATION ----------------------------


 * One electron integrals 
 Pre-screening matrix                    ... done
 Shell pair data                         ... done (   0.000 sec)

-------------------------------------------------------------------------------
                                 ORCA SCF
-------------------------------------------------------------------------------

------------
SCF SETTINGS
------------
Hamiltonian:
 Density Functional     Method          .... DFT(GTOs)
 Exchange Functional    Exchange        .... B88
   X-Alpha parameter    XAlpha          ....  0.666667
   Becke's b parameter  XBeta           ....  0.004200
 Correlation Functional Correlation     .... LYP
 LDA part of GGA corr.  LDAOpt          .... VWN-3
 Gradients option       PostSCFGGA      .... off
 Hybrid DFT is turned on
   Fraction HF Exchange ScalHFX         ....  0.200000
   Scaling of DF-GGA-X  ScalDFX         ....  0.720000
   Scaling of DF-GGA-C  ScalDFC         ....  0.810000
   Scaling of DF-LDA-C  ScalLDAC        ....  1.000000
   Perturbative correction              ....  0.000000
   Density functional embedding theory  .... OFF
   NL short-range parameter             ....  4.800000


General Settings:
 Integral files         IntName         .... input
 Hartree-Fock type      HFTyp           .... RHF
 Total Charge           Charge          ....    0
 Multiplicity           Mult            ....    1
 Number of Electrons    NEL             ....   10
 Basis Dimension        Dim             ....   36
 Nuclear Repulsion      ENuc            ....      9.0894337454 Eh

Convergence Acceleration:
 DIIS                   CNVDIIS         .... on
   Start iteration      DIISMaxIt       ....    12
   Startup error        DIISStart       ....  0.200000
   # of expansion vecs  DIISMaxEq       ....     5
   Bias factor          DIISBfac        ....   1.050
   Max. coefficient     DIISMaxC        ....  10.000
 Newton-Raphson         CNVNR           .... off
 SOSCF                  CNVSOSCF        .... on
   Start iteration      SOSCFMaxIt      ....   150
   Startup grad/error   SOSCFStart      ....  0.003300
 Level Shifting         CNVShift        .... on
   Level shift para.    LevelShift      ....    0.2500
   Turn off err/grad.   ShiftErr        ....    0.0010
 Zerner damping         CNVZerner       .... off
 Static damping         CNVDamp         .... on
   Fraction old density DampFac         ....    0.7000
   Max. Damping (<1)    DampMax         ....    0.9800
   Min. Damping (>=0)   DampMin         ....    0.0000
   Turn off err/grad.   DampErr         ....    0.1000
 Fernandez-Rico         CNVRico         .... off

SCF Procedure:
 Maximum # iterations   MaxIter         ....   500
 SCF integral mode      SCFMode         .... Direct
   Integral package                     .... LIBINT
 Reset frequency        DirectResetFreq ....    20
 Integral Threshold     Thresh          ....  1.000e-12 Eh
 Primitive CutOff       TCut            ....  1.000e-14 Eh

Convergence Tolerance:
 Convergence Check Mode ConvCheckMode   .... Total+1el-Energy
 Convergence forced     ConvForced      .... 0
 Energy Change          TolE            ....  1.000e-09 Eh
 1-El. energy change                    ....  1.000e-06 Eh
 Orbital Gradient       TolG            ....  2.000e-06
 Orbital Rotation angle TolX            ....  2.000e-06
 DIIS Error             TolErr          ....  1.000e-08


Diagonalization of the overlap matrix:
Smallest eigenvalue                        ... 3.259e-02
Time for diagonalization                   ...    0.001 sec
Threshold for overlap eigenvalues          ... 1.000e-08
Number of eigenvalues below threshold      ... 0
Time for construction of square roots      ...    0.000 sec
Total time needed                          ...    0.001 sec

-------------------
DFT GRID GENERATION
-------------------

General Integration Accuracy     IntAcc      ...  7.000
Radial Grid Type                 RadialGrid  ... Gauss-Chebyshev
Angular Grid (max. acc.)         AngularGrid ... Lebedev-434
Angular grid pruning method      GridPruning ... 3 (G Style)
Weight generation scheme         WeightScheme... Becke
Basis function cutoff            BFCut       ...    1.0000e-12
Integration weight cutoff        WCut        ...    1.0000e-14
Grids for H and He will be reduced by one unit

# of grid points (after initial pruning)     ...  41434 (   0.0 sec)
# of grid points (after weights+screening)   ...  41042 (   0.0 sec)
nearest neighbour list constructed           ...    0.0 sec
Grid point re-assignment to atoms done       ...    0.0 sec
Grid point division into batches done        ...    0.6 sec
Reduced shell lists constructed in    0.7 sec

Total number of grid points                  ...    41042
Total number of batches                      ...      642
Average number of points per batch           ...       63
Average number of grid points per atom       ...    13681
Average number of shells per batch           ...    11.49 (82.09%)
Average number of basis functions per batch  ...    29.37 (81.58%)
Average number of large shells per batch     ...    10.70 (93.06%)
Average number of large basis fcns per batch ...    27.45 (93.47%)
Maximum spatial batch extension              ...  16.12, 19.63, 15.43 au
Average spatial batch extension              ...   2.33,  2.58,  2.29 au

Time for grid setup =    0.719 sec

------------------------------
INITIAL GUESS: MODEL POTENTIAL
------------------------------
Loading Hartree-Fock densities                     ... done
Calculating cut-offs                               ... done
Setting up the integral package                    ... done
Initializing the effective Hamiltonian             ... done
Starting the Coulomb interaction                   ... done (   0.0 sec)
Reading the grid                                   ... done
Mapping shells                                     ... done
Starting the XC term evaluation                    ... done (   0.1 sec)
  promolecular density results
     # of electrons  =      9.999020058
     EX              =     -8.778906026
     EC              =     -0.334386752
     EX+EC           =     -9.113292778
Transforming the Hamiltonian                       ... done (   0.0 sec)
Diagonalizing the Hamiltonian                      ... done (   0.0 sec)
Back transforming the eigenvectors                 ... done (   0.0 sec)
Now organizing SCF variables                       ... done
                      ------------------
                      INITIAL GUESS DONE (   0.9 sec)
                      ------------------
--------------
SCF ITERATIONS
--------------
ITER       Energy         Delta-E        Max-DP      RMS-DP      [F,P]     Damp
               ***  Starting incremental Fock matrix formation  ***
  0    -76.3277042187   0.000000000000 0.09122101  0.00597100  0.3054172 0.7000
  1    -76.3746777281  -0.046973509346 0.05075015  0.00343828  0.1283721 0.7000
                               ***Turning on DIIS***
  2    -76.3903655138  -0.015687785689 0.05941316  0.00404325  0.0318227 0.0000
  3    -76.4174329803  -0.027067466519 0.03157083  0.00216100  0.0733812 0.0000
  4    -76.4227455979  -0.005312617608 0.00450756  0.00043186  0.0107831 0.0000
                      *** Initiating the SOSCF procedure ***
                           *** Shutting down DIIS ***
                      *** Re-Reading the Fockian *** 
                      *** Removing any level shift *** 
ITER      Energy       Delta-E        Grad      Rot      Max-DP    RMS-DP
  5    -76.42289266  -0.0001470646  0.000815  0.000815  0.001601  0.000128
               *** Restarting incremental Fock matrix formation ***
  6    -76.42289939  -0.0000067305  0.000349  0.000792  0.001255  0.000080
  7    -76.42289965  -0.0000002580  0.000337  0.000152  0.000375  0.000022
  8    -76.42290001  -0.0000003607  0.000050  0.000087  0.000114  0.000010
  9    -76.42290003  -0.0000000136  0.000007  0.000014  0.000018  0.000001
 10    -76.42290003  -0.0000000005  0.000002  0.000001  0.000002  0.000000
                 **** Energy Check signals convergence ****
              ***Rediagonalizing the Fockian in SOSCF/NRSCF***

               *****************************************************
               *                     SUCCESS                       *
               *           SCF CONVERGED AFTER  11 CYCLES          *
               *****************************************************


----------------
TOTAL SCF ENERGY
----------------

Total Energy       :          -76.42290003 Eh           -2079.57283 eV

Components:
Nuclear Repulsion  :            9.08943375 Eh             247.33607 eV
Electronic Energy  :          -85.51233377 Eh           -2326.90890 eV
One Electron Energy:         -122.99188617 Eh           -3346.77937 eV
Two Electron Energy:           37.47955240 Eh            1019.87047 eV

Virial components:
Potential Energy   :         -152.36376206 Eh           -4146.02875 eV
Kinetic Energy     :           75.94086204 Eh            2066.45591 eV
Virial Ratio       :            2.00634754


DFT components:
N(Alpha)           :        5.000000064227 electrons
N(Beta)            :        5.000000064227 electrons
N(Total)           :       10.000000128453 electrons
E(X)               :       -7.124608053160 Eh       
E(C)               :       -0.439331185373 Eh       
E(XC)              :       -7.563939238534 Eh       
DFET-embed. en.    :        0.000000000000 Eh       

---------------
SCF CONVERGENCE
---------------

  Last Energy change         ...   -1.3173e-11  Tolerance :   1.0000e-09
  Last MAX-Density change    ...    7.0636e-07  Tolerance :   1.0000e-08
  Last RMS-Density change    ...    5.5900e-08  Tolerance :   1.0000e-09
  Last Orbital Gradient      ...    3.3730e-07  Tolerance :   2.0000e-06
  Last Orbital Rotation      ...    5.3762e-07  Tolerance :   2.0000e-06

             **** THE GBW FILE WAS UPDATED (input.gbw) ****
             **** DENSITY FILE WAS UPDATED (input.scfp) ****
             **** ENERGY FILE WAS UPDATED (input.en.tmp) ****
             **** THE GBW FILE WAS UPDATED (input.gbw) ****
             **** DENSITY FILE WAS UPDATED (input.scfp) ****
----------------
ORBITAL ENERGIES
----------------

  NO   OCC          E(Eh)            E(eV) 
   0   2.0000     -19.133568      -520.6508 
   1   2.0000      -0.992714       -27.0131 
   2   2.0000      -0.510973       -13.9043 
   3   2.0000      -0.371787       -10.1168 
   4   2.0000      -0.292333        -7.9548 
   5   0.0000       0.069181         1.8825 
   6   0.0000       0.151021         4.1095 
   7   0.0000       0.621752        16.9187 
   8   0.0000       0.682530        18.5726 
   9   0.0000       0.830636        22.6028 
  10   0.0000       0.864330        23.5196 
  11   0.0000       0.886737        24.1293 
  12   0.0000       0.943507        25.6741 
  13   0.0000       0.949107        25.8265 
  14   0.0000       1.019989        27.7553 
  15   0.0000       1.178464        32.0676 
  16   0.0000       1.849515        50.3279 
  17   0.0000       2.098460        57.1020 
  18   0.0000       2.312154        62.9169 
  19   0.0000       2.462242        67.0010 
  20   0.0000       2.551716        69.4357 
  21   0.0000       2.855000        77.6885 
  22   0.0000       2.874173        78.2102 
  23   0.0000       3.054821        83.1259 
  24   0.0000       4.112716       111.9127 
  25   0.0000       4.121246       112.1448 
  26   0.0000       4.138832       112.6233 
  27   0.0000       4.465335       121.5079 
  28   0.0000       4.758490       129.4851 
  29   0.0000       5.019358       136.5837 
  30   0.0000       5.197469       141.4303 
  31   0.0000       5.400297       146.9495 
  32   0.0000       5.404318       147.0590 
  33   0.0000       5.527094       150.3999 
  34   0.0000       5.864947       159.5933 
  35   0.0000       6.102519       166.0580 

                    ********************************
                    * MULLIKEN POPULATION ANALYSIS *
                    ********************************

-----------------------
MULLIKEN ATOMIC CHARGES
-----------------------
   0 O :   -0.601834
   1 H :    0.300916
   2 H :    0.300917
Sum of atomic charges:    0.0000000

--------------------------------
MULLIKEN REDUCED ORBITAL CHARGES
--------------------------------
  0 O s       :     3.806172  s :     3.806172
      pz      :     1.441573  p :     4.778281
      px      :     1.359091
      py      :     1.977617
      dz2     :     0.006980  d :     0.016357
      dxz     :     0.001103
      dyz     :     0.002675
      dx2y2   :     0.003943
      dxy     :     0.001655
      f0      :     0.000259  f :     0.001023
      f+1     :     0.000097
      f-1     :     0.000048
      f+2     :     0.000077
      f-2     :     0.000010
      f+3     :     0.000427
      f-3     :     0.000105
  1 H s       :     0.663643  s :     0.663643
      pz      :     0.005986  p :     0.035440
      px      :     0.020511
      py      :     0.008944
  2 H s       :     0.663643  s :     0.663643
      pz      :     0.020108  p :     0.035440
      px      :     0.006388
      py      :     0.008944


                     *******************************
                     * LOEWDIN POPULATION ANALYSIS *
                     *******************************

----------------------
LOEWDIN ATOMIC CHARGES
----------------------
   0 O :   -0.361793
   1 H :    0.180897
   2 H :    0.180896

-------------------------------
LOEWDIN REDUCED ORBITAL CHARGES
-------------------------------
  0 O s       :     3.515091  s :     3.515091
      pz      :     1.469225  p :     4.796474
      px      :     1.394091
      py      :     1.933159
      dz2     :     0.027559  d :     0.047112
      dxz     :     0.002193
      dyz     :     0.001317
      dx2y2   :     0.015229
      dxy     :     0.000815
      f0      :     0.001167  f :     0.003115
      f+1     :     0.000847
      f-1     :     0.000000
      f+2     :     0.000024
      f-2     :     0.000000
      f+3     :     0.001077
      f-3     :     0.000000
  1 H s       :     0.700144  s :     0.700144
      pz      :     0.021526  p :     0.118959
      px      :     0.065078
      py      :     0.032355
  2 H s       :     0.700144  s :     0.700144
      pz      :     0.064418  p :     0.118960
      px      :     0.022187
      py      :     0.032355


                      *****************************
                      * MAYER POPULATION ANALYSIS *
                      *****************************

  NA   - Mulliken gross atomic population
  ZA   - Total nuclear charge
  QA   - Mulliken gross atomic charge
  VA   - Mayer's total valence
  BVA  - Mayer's bonded valence
  FA   - Mayer's free valence

  ATOM       NA         ZA         QA         VA         BVA        FA
  0 O      8.6018     8.0000    -0.6018     1.7992     1.7992     0.0000
  1 H      0.6991     1.0000     0.3009     0.8966     0.8966     0.0000
  2 H      0.6991     1.0000     0.3009     0.8966     0.8966     0.0000

  Mayer bond orders larger than 0.100000
B(  0-O ,  1-H ) :   0.8996 B(  0-O ,  2-H ) :   0.8996 

-------
TIMINGS
-------

Total SCF time: 0 days 0 hours 0 min 3 sec 

Total time                  ....       3.284 sec
Sum of individual times     ....       3.131 sec  ( 95.3%)

Fock matrix formation       ....       2.242 sec  ( 68.3%)
  XC integration            ....       1.351 sec  ( 60.3% of F)
    Basis function eval.    ....       0.512 sec  ( 37.9% of XC)
    Density eval.           ....       0.198 sec  ( 14.6% of XC)
    XC-Functional eval.     ....       0.319 sec  ( 23.6% of XC)
    XC-Potential eval.      ....       0.229 sec  ( 17.0% of XC)
Diagonalization             ....       0.001 sec  (  0.0%)
Density matrix formation    ....       0.000 sec  (  0.0%)
Population analysis         ....       0.000 sec  (  0.0%)
Initial guess               ....       0.166 sec  (  5.1%)
Orbital Transformation      ....       0.000 sec  (  0.0%)
Orbital Orthonormalization  ....       0.000 sec  (  0.0%)
DIIS solution               ....       0.001 sec  (  0.0%)
SOSCF solution              ....       0.001 sec  (  0.0%)
Grid generation             ....       0.719 sec  ( 21.9%)

-------------------------   --------------------
FINAL SINGLE POINT ENERGY       -76.422900025715
-------------------------   --------------------

------------------------------------------------------------------------------
                         ORCA SCF GRADIENT CALCULATION
------------------------------------------------------------------------------

Gradient of the Kohn-Sham DFT energy:
Kohn-Sham wavefunction type      ... RKS
Hartree-Fock exchange scaling    ...    0.200
Number of operators              ...    1
Number of atoms                  ...    3
Basis set dimensions             ...   36
Integral neglect threshold       ... 1.0e-12
Integral primitive cutoff        ... 1.0e-14

Nuclear repulsion gradient       ... done
One Electron Gradient            ... done
Pre-screening matrix             ... done
Starting the two electron gradient:
Two electron gradient done
Exchange-correlation gradient    ... done

------------------
CARTESIAN GRADIENT
------------------

   1   O   :   -0.005101896   -0.000000000    0.006482406
   2   H   :    0.006887418    0.000000000    0.000168951
   3   H   :   -0.001785522    0.000000000   -0.006651357

Difference to translation invariance:
           :    0.0000000000    0.0000000000   -0.0000000000

Norm of the cartesian gradient     ...    0.0127649771
RMS gradient                       ...    0.0042549924
MAX gradient                       ...    0.0068874184

-------
TIMINGS
-------

Total SCF gradient time            ...        0.699 sec

One electron gradient       ....       0.003 sec  (  0.4%)
Prescreening matrices       ....       0.020 sec  (  2.9%)
Two electron gradient       ....       0.071 sec  ( 10.2%)
XC gradient                 ....       0.450 sec  ( 64.4%)

-------------------------------------------------------------------------------
                               ORCA SCF HESSIAN
-------------------------------------------------------------------------------

Hessian of the Kohn-Sham DFT energy:
Kohn-Sham wavefunction type                      ... RKS
Hartree-Fock exchange scaling                    ...    0.200
Number of operators                              ...    1
Number of atoms                                  ...    3
Basis set dimensions                             ...   36
Integral neglect threshold                       ... 1.0e-12
Integral primitive cutoff                        ... 1.0e-14

Setting up DFT Hessian calculations              ... 
Electron density on the grid                     ... found on disk
Building xc-kernel on the grid                   ... done   (      0.1 sec)
                                                     done   (      0.1 sec)

Nuclear repulsion Hessian                        ... done   (      0.0 sec)

----------------------------------------------
Forming right-hand sides of CP-SCF equations     ...
----------------------------------------------
One electron integral derivatives                ... done   (      0.1 sec)
Transforming the overlap derivative matrices     ... done   (      0.0 sec)
Making the Q(x) pseudodensities                  ... done   (      0.0 sec)
Adding the E*S(x)*S(y) terms to the Hessian      ... done   (      0.0 sec)
Calculating energy weighted overlap derivatives  ... done   (      0.0 sec)
Two electron integral derivatives                ... done   (      0.2 sec)
Exchange-correlation integral derivatives        ... done   (      1.3 sec)
tr(F(y)Q(x)) contribution to the Hessian         ... done   (      0.0 sec)
Response fock operator R(S(x))                   ... done   (      0.1 sec)
XC Response fock operator R(S(x))                ... done   (      0.4 sec)
tr(F(y)S(x)) contribution to the Hessian         ... done   (      0.0 sec)
Transforming and finalizing RHSs                 ... done   (      0.0 sec)

----------------------------------------------
Solving the CP-SCF equations                     ...
----------------------------------------------
     CP-SCF ITERATION   0: 
     CP-SCF ITERATION   1:      0.000418524282
     CP-SCF ITERATION   2:      0.000011735602
     CP-SCF ITERATION   3:      0.000000200334
     CP-SCF ITERATION   4:      0.000000005722
     CP-SCF ITERATION   5:      0.000000000697

                                                 ... done   (      3.6 sec)
Forming perturbed density Hessian contributions  ... done   (      0.0 sec)
Making the perturbed densities                   ... done   (      0.0 sec)
2nd integral derivative contribs                 ... done   (      0.6 sec)
Exchange-correlation Hessian                     ... done   (      2.0 sec)
Dipol derivatives                                ... done   (      0.1 sec)

Total SCF Hessian time: 0 days 0 hours 0 min 8 sec 

Writing the Hessian file to the disk             ... done


Maximum memory used throughout the entire calculation: 150.8 MB

-----------------------
VIBRATIONAL FREQUENCIES
-----------------------

Scaling factor for frequencies =  1.000000000  (already applied!)

   0:         0.00 cm**-1
   1:         0.00 cm**-1
   2:         0.00 cm**-1
   3:         0.00 cm**-1
   4:         0.00 cm**-1
   5:         0.00 cm**-1
   6:      1689.53 cm**-1
   7:      3714.21 cm**-1
   8:      3817.12 cm**-1


------------
NORMAL MODES
------------

These modes are the Cartesian displacements weighted by the diagonal matrix
M(i,i)=1/sqrt(m[i]) where m[i] is the mass of the displaced atom
Thus, these vectors are normalized but *not* orthogonal

                  0          1          2          3          4          5    
      0       0.000000   0.000000   0.000000   0.000000   0.000000   0.000000
      1       0.000000   0.000000   0.000000   0.000000   0.000000   0.000000
      2       0.000000   0.000000   0.000000   0.000000   0.000000   0.000000
      3       0.000000   0.000000   0.000000   0.000000   0.000000   0.000000
      4       0.000000   0.000000   0.000000   0.000000   0.000000   0.000000
      5       0.000000   0.000000   0.000000   0.000000   0.000000   0.000000
      6       0.000000   0.000000   0.000000   0.000000   0.000000   0.000000
      7       0.000000   0.000000   0.000000   0.000000   0.000000   0.000000
      8       0.000000   0.000000   0.000000   0.000000   0.000000   0.000000
                   6          7          8    
      0      -0.043761  -0.030770  -0.054905
      1       0.000000   0.000000   0.000000
      2       0.055633   0.039104  -0.043197
      3       0.012006   0.704431   0.705287
      4       0.000000   0.000000   0.000000
      5      -0.705230   0.051623  -0.000006
      6       0.682564  -0.216044   0.166166
      7       0.000000   0.000000   0.000000
      8      -0.177771  -0.672281   0.685623


-----------
IR SPECTRUM
-----------

 Mode    freq (cm**-1)   T**2         TX         TY         TZ
-------------------------------------------------------------------
   6:      1689.53   72.741935  (  5.273551  -0.000000  -6.703103)
   7:      3714.21    2.784718  (  1.032217   0.000000  -1.311200)
   8:      3817.12   27.071976  (  4.089332  -0.000000   3.217039)

The first frequency considered to be a vibration is 6
The total number of vibrations considered is 3


--------------------------
THERMOCHEMISTRY AT 273.15K
--------------------------

Temperature         ... 273.15 K
Pressure            ... 1.00 atm
Total Mass          ... 18.02 AMU

Throughout the following assumptions are being made:
  (1) The electronic state is orbitally nondegenerate
  (2) There are no thermally accessible electronically excited states
  (3) Hindered rotations indicated by low frequency modes are not
      treated as such but are treated as vibrations and this may
      cause some error
  (4) All equations used are the standard statistical mechanics
      equations for an ideal gas
  (5) All vibrations are strictly harmonic

freq.    1689.53  E(vib)   ...       0.00 
freq.    3714.21  E(vib)   ...       0.00 
freq.    3817.12  E(vib)   ...       0.00 

------------
INNER ENERGY
------------

The inner energy is: U= E(el) + E(ZPE) + E(vib) + E(rot) + E(trans)
    E(el)   - is the total energy from the electronic structure calculation
              = E(kin-el) + E(nuc-el) + E(el-el) + E(nuc-nuc)
    E(ZPE)  - the the zero temperature vibrational energy from the frequency calculation
    E(vib)  - the the finite temperature correction to E(ZPE) due to population
              of excited vibrational states
    E(rot)  - is the rotational thermal energy
    E(trans)- is the translational thermal energy

Summary of contributions to the inner energy U:
Electronic energy                ...    -76.42290003 Eh
Zero point energy                ...      0.02100666 Eh      13.18 kcal/mol
Thermal vibrational correction   ...      0.00000105 Eh       0.00 kcal/mol
Thermal rotational correction    ...      0.00129752 Eh       0.81 kcal/mol
Thermal translational correction ...      0.00129752 Eh       0.81 kcal/mol
-----------------------------------------------------------------------
Total thermal energy                    -76.39929728 Eh


Summary of corrections to the electronic energy:
(perhaps to be used in another calculation)
Total thermal correction                  0.00259608 Eh       1.63 kcal/mol
Non-thermal (ZPE) correction              0.02100666 Eh      13.18 kcal/mol
-----------------------------------------------------------------------
Total correction                          0.02360274 Eh      14.81 kcal/mol


--------
ENTHALPY
--------

The enthalpy is H = U + kB*T
                kB is Boltzmann's constant
Total free energy                 ...    -76.39929728 Eh 
Thermal Enthalpy correction       ...      0.00086504 Eh       0.54 kcal/mol
-----------------------------------------------------------------------
Total Enthalpy                    ...    -76.39843225 Eh


Note: Rotational entropy computed according to Herzberg 
Infrared and Raman Spectra, Chapter V,1, Van Nostrand Reinhold, 1945 
Point Group:  Cs, Symmetry Number:   1  
Rotational constants in cm-1:    26.259312    14.429418     9.312323 

Vibrational entropy computed according to the QRRHO of S. Grimme
Chem.Eur.J. 2012 18 9955


-------
ENTROPY
-------

The entropy contributions are T*S = T*(S(el)+S(vib)+S(rot)+S(trans))
     S(el)   - electronic entropy
     S(vib)  - vibrational entropy
     S(rot)  - rotational entropy
     S(trans)- translational entropy
The entropies will be listed as mutliplied by the temperature to get
units of energy

Electronic entropy                ...      0.00000000 Eh      0.00 kcal/mol
Vibrational entropy               ...      0.00000117 Eh      0.00 kcal/mol
Rotational entropy                ...      0.00506672 Eh      3.18 kcal/mol
Translational entropy             ...      0.01487560 Eh      9.33 kcal/mol
-----------------------------------------------------------------------
Final entropy term                ...      0.01994348 Eh     12.51 kcal/mol

In case the symmetry of your molecule has not been determined correctly
or in case you have a reason to use a different symmetry number we print 
out the resulting rotational entropy values for sn=1,12 :
 --------------------------------------------------------
|  sn= 1 | S(rot)=       0.00506672 Eh      3.18 kcal/mol|
|  sn= 2 | S(rot)=       0.00446714 Eh      2.80 kcal/mol|
|  sn= 3 | S(rot)=       0.00411641 Eh      2.58 kcal/mol|
|  sn= 4 | S(rot)=       0.00386756 Eh      2.43 kcal/mol|
|  sn= 5 | S(rot)=       0.00367454 Eh      2.31 kcal/mol|
|  sn= 6 | S(rot)=       0.00351683 Eh      2.21 kcal/mol|
|  sn= 7 | S(rot)=       0.00338348 Eh      2.12 kcal/mol|
|  sn= 8 | S(rot)=       0.00326798 Eh      2.05 kcal/mol|
|  sn= 9 | S(rot)=       0.00316609 Eh      1.99 kcal/mol|
|  sn=10 | S(rot)=       0.00307496 Eh      1.93 kcal/mol|
|  sn=11 | S(rot)=       0.00299251 Eh      1.88 kcal/mol|
|  sn=12 | S(rot)=       0.00291725 Eh      1.83 kcal/mol|
 --------------------------------------------------------


-------------------
GIBBS FREE ENERGY
-------------------

The Gibbs free energy is G = H - T*S

Total enthalpy                    ...    -76.39843225 Eh 
Total entropy correction          ...     -0.01994348 Eh    -12.51 kcal/mol
-----------------------------------------------------------------------
Final Gibbs free energy         ...    -76.41837573 Eh

For completeness - the Gibbs free energy minus the electronic energy
G-E(el)                           ...      0.00452430 Eh      2.84 kcal/mol


The first frequency considered to be a vibration is 6
The total number of vibrations considered is 3


--------------------------
THERMOCHEMISTRY AT 298.15K
--------------------------

Temperature         ... 298.15 K
Pressure            ... 1.00 atm
Total Mass          ... 18.02 AMU

Throughout the following assumptions are being made:
  (1) The electronic state is orbitally nondegenerate
  (2) There are no thermally accessible electronically excited states
  (3) Hindered rotations indicated by low frequency modes are not
      treated as such but are treated as vibrations and this may
      cause some error
  (4) All equations used are the standard statistical mechanics
      equations for an ideal gas
  (5) All vibrations are strictly harmonic

freq.    1689.53  E(vib)   ...       0.00 
freq.    3714.21  E(vib)   ...       0.00 
freq.    3817.12  E(vib)   ...       0.00 

------------
INNER ENERGY
------------

The inner energy is: U= E(el) + E(ZPE) + E(vib) + E(rot) + E(trans)
    E(el)   - is the total energy from the electronic structure calculation
              = E(kin-el) + E(nuc-el) + E(el-el) + E(nuc-nuc)
    E(ZPE)  - the the zero temperature vibrational energy from the frequency calculation
    E(vib)  - the the finite temperature correction to E(ZPE) due to population
              of excited vibrational states
    E(rot)  - is the rotational thermal energy
    E(trans)- is the translational thermal energy

Summary of contributions to the inner energy U:
Electronic energy                ...    -76.42290003 Eh
Zero point energy                ...      0.02100666 Eh      13.18 kcal/mol
Thermal vibrational correction   ...      0.00000222 Eh       0.00 kcal/mol
Thermal rotational correction    ...      0.00141627 Eh       0.89 kcal/mol
Thermal translational correction ...      0.00141627 Eh       0.89 kcal/mol
-----------------------------------------------------------------------
Total thermal energy                    -76.39905861 Eh


Summary of corrections to the electronic energy:
(perhaps to be used in another calculation)
Total thermal correction                  0.00283476 Eh       1.78 kcal/mol
Non-thermal (ZPE) correction              0.02100666 Eh      13.18 kcal/mol
-----------------------------------------------------------------------
Total correction                          0.02384142 Eh      14.96 kcal/mol


--------
ENTHALPY
--------

The enthalpy is H = U + kB*T
                kB is Boltzmann's constant
Total free energy                 ...    -76.39905861 Eh 
Thermal Enthalpy correction       ...      0.00094421 Eh       0.59 kcal/mol
-----------------------------------------------------------------------
Total Enthalpy                    ...    -76.39811440 Eh


Note: Rotational entropy computed according to Herzberg 
Infrared and Raman Spectra, Chapter V,1, Van Nostrand Reinhold, 1945 
Point Group:  Cs, Symmetry Number:   1  
Rotational constants in cm-1:    26.259312    14.429418     9.312323 

Vibrational entropy computed according to the QRRHO of S. Grimme
Chem.Eur.J. 2012 18 9955


-------
ENTROPY
-------

The entropy contributions are T*S = T*(S(el)+S(vib)+S(rot)+S(trans))
     S(el)   - electronic entropy
     S(vib)  - vibrational entropy
     S(rot)  - rotational entropy
     S(trans)- translational entropy
The entropies will be listed as mutliplied by the temperature to get
units of energy

Electronic entropy                ...      0.00000000 Eh      0.00 kcal/mol
Vibrational entropy               ...      0.00000249 Eh      0.00 kcal/mol
Rotational entropy                ...      0.00565448 Eh      3.55 kcal/mol
Translational entropy             ...      0.01644380 Eh     10.32 kcal/mol
-----------------------------------------------------------------------
Final entropy term                ...      0.02210077 Eh     13.87 kcal/mol

In case the symmetry of your molecule has not been determined correctly
or in case you have a reason to use a different symmetry number we print 
out the resulting rotational entropy values for sn=1,12 :
 --------------------------------------------------------
|  sn= 1 | S(rot)=       0.00565448 Eh      3.55 kcal/mol|
|  sn= 2 | S(rot)=       0.00500002 Eh      3.14 kcal/mol|
|  sn= 3 | S(rot)=       0.00461719 Eh      2.90 kcal/mol|
|  sn= 4 | S(rot)=       0.00434557 Eh      2.73 kcal/mol|
|  sn= 5 | S(rot)=       0.00413488 Eh      2.59 kcal/mol|
|  sn= 6 | S(rot)=       0.00396273 Eh      2.49 kcal/mol|
|  sn= 7 | S(rot)=       0.00381719 Eh      2.40 kcal/mol|
|  sn= 8 | S(rot)=       0.00369111 Eh      2.32 kcal/mol|
|  sn= 9 | S(rot)=       0.00357990 Eh      2.25 kcal/mol|
|  sn=10 | S(rot)=       0.00348042 Eh      2.18 kcal/mol|
|  sn=11 | S(rot)=       0.00339043 Eh      2.13 kcal/mol|
|  sn=12 | S(rot)=       0.00330828 Eh      2.08 kcal/mol|
 --------------------------------------------------------


-------------------
GIBBS FREE ENERGY
-------------------

The Gibbs free energy is G = H - T*S

Total enthalpy                    ...    -76.39811440 Eh 
Total entropy correction          ...     -0.02210077 Eh    -13.87 kcal/mol
-----------------------------------------------------------------------
Final Gibbs free energy         ...    -76.42021517 Eh

For completeness - the Gibbs free energy minus the electronic energy
G-E(el)                           ...      0.00268486 Eh      1.68 kcal/mol

Actual Hessian File stored as input.001.hess
------------------------------------------------------------------------------
                         ORCA GEOMETRY RELAXATION STEP
------------------------------------------------------------------------------

Reading the OPT-File                    .... done
Getting information on internals        .... done
Copying old internal coords+grads       .... done
Making the new internal coordinates     .... (new redundants).... done
Validating the new internal coordinates .... (new redundants).... done
Calculating the B-matrix                .... done
Calculating the G,G- and P matrices     .... done
Transforming gradient to internals      .... done
Projecting the internal gradient        .... done
Number of atoms                         ....   3
Number of internal coordinates          ....   3
Current Energy                          ....   -76.422900026 Eh
Current gradient norm                   ....     0.012764977 Eh/bohr
Maximum allowed component of the step   ....  0.300
Current trust radius                    ....  0.300
Evaluating the initial hessian          ....  (read) 
(Reading Exact Hessian)...  
InHessName: input.hess	The file <input.hess> is opened as a .hess file
done
done
Diagonalizing the Hessian               .... done
Dimension of the hessian                .... 3
Lowest eigenvalues of the non projected Hessian:
  0.167207185  0.509803226  0.516318846
done
Projecting the Hessian                  .... done
Forming the augmented Hessian           .... done
Diagonalizing the augmented Hessian     .... done
Last element of RFO vector              ....  0.999801633
Lowest eigenvalues of augmented Hessian:
 -0.000190159  0.167213159  0.509987411
Length of the computed step             ....  0.019921170
The final length of the internal step   ....  0.019921170
Converting the step to cartesian space:
 Initial RMS(Int)=    0.0115014931
Transforming coordinates:
 Iter   0:  RMS(Cart)=    0.0051955050 RMS(Int)=    0.0115019120
 Iter   1:  RMS(Cart)=    0.0000090955 RMS(Int)=    0.0000151457
 Iter   2:  RMS(Cart)=    0.0000000729 RMS(Int)=    0.0000001164
done
Storing new coordinates                 .... done

                                .--------------------.
          ----------------------|Geometry convergence|-------------------------
          Item                value                   Tolerance       Converged
          ---------------------------------------------------------------------
          RMS gradient        0.0056253054            0.0000300000      NO
          MAX gradient        0.0068874743            0.0001000000      NO
          RMS step            0.0115014931            0.0006000000      NO
          MAX step            0.0138859017            0.0010000000      NO
          ........................................................
          Max(Bonds)      0.0073      Max(Angles)    0.19
          Max(Dihed)        0.00      Max(Improp)    0.00
          ---------------------------------------------------------------------

The optimization has not yet converged - more geometry cycles are needed


    ---------------------------------------------------------------------------
                         Redundant Internal Coordinates
                            (Angstroem and degrees)

        Definition                    Value    dE/dq     Step     New-Value
    ----------------------------------------------------------------------------
     1. B(H   1,O   0)                0.9685  0.006887 -0.0073    0.9612   
     2. B(H   2,O   0)                0.9685  0.006885 -0.0073    0.9612   
     3. A(H   1,O   0,H   2)          103.62  0.000309    0.19    103.82   
    ----------------------------------------------------------------------------

         *************************************************************
         *                GEOMETRY OPTIMIZATION CYCLE   2            *
         *************************************************************
---------------------------------
CARTESIAN COORDINATES (ANGSTROEM)
---------------------------------
  O      0.002398    0.000000   -0.003047
  H      0.963589    0.000000   -0.001427
  H     -0.225567    0.000000   -0.936816

----------------------------
CARTESIAN COORDINATES (A.U.)
----------------------------
  NO LB      ZA    FRAG     MASS         X           Y           Z
   0 O     8.0000    0    15.999    0.004532    0.000000   -0.005758
   1 H     1.0000    0     1.008    1.820919    0.000000   -0.002697
   2 H     1.0000    0     1.008   -0.426260    0.000000   -1.770325

--------------------------------
INTERNAL COORDINATES (ANGSTROEM)
--------------------------------
 O      0   0   0     0.000000000000     0.00000000     0.00000000
 H      1   0   0     0.961191897436     0.00000000     0.00000000
 H      1   2   0     0.961192697344   103.81608513     0.00000000

---------------------------
INTERNAL COORDINATES (A.U.)
---------------------------
 O      0   0   0     0.000000000000     0.00000000     0.00000000
 H      1   0   0     1.816389448297     0.00000000     0.00000000
 H      1   2   0     1.816390959905   103.81608513     0.00000000


Diagonalization of the overlap matrix:
Smallest eigenvalue                        ... 3.205e-02
Time for diagonalization                   ...    0.001 sec
Threshold for overlap eigenvalues          ... 1.000e-08
Number of eigenvalues below threshold      ... 0
Time for construction of square roots      ...    0.000 sec
Total time needed                          ...    0.001 sec

-------------------
DFT GRID GENERATION
-------------------

General Integration Accuracy     IntAcc      ...  7.000
Radial Grid Type                 RadialGrid  ... Gauss-Chebyshev
Angular Grid (max. acc.)         AngularGrid ... Lebedev-434
Angular grid pruning method      GridPruning ... 3 (G Style)
Weight generation scheme         WeightScheme... Becke
Basis function cutoff            BFCut       ...    1.0000e-12
Integration weight cutoff        WCut        ...    1.0000e-14
Grids for H and He will be reduced by one unit

# of grid points (after initial pruning)     ...  41434 (   0.0 sec)
# of grid points (after weights+screening)   ...  41041 (   0.0 sec)
nearest neighbour list constructed           ...    0.0 sec
Grid point re-assignment to atoms done       ...    0.0 sec
Grid point division into batches done        ...    0.6 sec
Reduced shell lists constructed in    0.7 sec

Total number of grid points                  ...    41041
Total number of batches                      ...      643
Average number of points per batch           ...       63
Average number of grid points per atom       ...    13680
Average number of shells per batch           ...    11.50 (82.11%)
Average number of basis functions per batch  ...    29.36 (81.54%)
Average number of large shells per batch     ...    10.74 (93.41%)
Average number of large basis fcns per batch ...    27.59 (93.99%)
Maximum spatial batch extension              ...  16.12, 19.63, 15.43 au
Average spatial batch extension              ...   2.31,  2.58,  2.29 au

Time for grid setup =    0.713 sec

--------------
SCF ITERATIONS
--------------
ITER       Energy         Delta-E        Max-DP      RMS-DP      [F,P]     Damp
               ***  Starting incremental Fock matrix formation  ***
                      *** Initiating the SOSCF procedure ***
                      *** Re-Reading the Fockian *** 
                      *** Removing any level shift *** 
ITER      Energy       Delta-E        Grad      Rot      Max-DP    RMS-DP
  0    -76.42295946 -76.4229594596  0.002632  0.002632  0.004099  0.000271
               *** Restarting incremental Fock matrix formation ***
  1    -76.42298869  -0.0000292300  0.001067  0.000922  0.002651  0.000145
  2    -76.42298795   0.0000007351  0.001204  0.000611  0.001235  0.000087
  3    -76.42299350  -0.0000055407  0.000045  0.000040  0.000040  0.000005
  4    -76.42299351  -0.0000000119  0.000021  0.000011  0.000010  0.000001
  5    -76.42299351  -0.0000000020  0.000001  0.000002  0.000001  0.000000
                 **** Energy Check signals convergence ****
              ***Rediagonalizing the Fockian in SOSCF/NRSCF***

               *****************************************************
               *                     SUCCESS                       *
               *           SCF CONVERGED AFTER   6 CYCLES          *
               *****************************************************

Total Energy       :          -76.42299351 Eh           -2079.57538 eV
  Last Energy change         ...   -3.3822e-12  Tolerance :   1.0000e-09
  Last MAX-Density change    ...    1.0581e-07  Tolerance :   1.0000e-08
             **** THE GBW FILE WAS UPDATED (input.gbw) ****
             **** DENSITY FILE WAS UPDATED (input.scfp) ****
             **** ENERGY FILE WAS UPDATED (input.en.tmp) ****
             **** THE GBW FILE WAS UPDATED (input.gbw) ****
             **** DENSITY FILE WAS UPDATED (input.scfp) ****
Total SCF time: 0 days 0 hours 0 min 2 sec 

-------------------------   --------------------
FINAL SINGLE POINT ENERGY       -76.422993509136
-------------------------   --------------------

------------------------------------------------------------------------------
                         ORCA SCF GRADIENT CALCULATION
------------------------------------------------------------------------------

Gradient of the Kohn-Sham DFT energy:
Kohn-Sham wavefunction type      ... RKS
Hartree-Fock exchange scaling    ...    0.200
Number of operators              ...    1
Number of atoms                  ...    3
Basis set dimensions             ...   36
Integral neglect threshold       ... 1.0e-12
Integral primitive cutoff        ... 1.0e-14

Nuclear repulsion gradient       ... done
One Electron Gradient            ... done
Pre-screening matrix             ... done
Starting the two electron gradient:
Two electron gradient done
Exchange-correlation gradient    ... done

------------------
CARTESIAN GRADIENT
------------------

   1   O   :    0.000120174    0.000000000   -0.000152592
   2   H   :   -0.000179831   -0.000000000   -0.000017691
   3   H   :    0.000059657   -0.000000000    0.000170284

Difference to translation invariance:
           :    0.0000000000    0.0000000000    0.0000000000

Norm of the cartesian gradient     ...    0.0003208330
RMS gradient                       ...    0.0001069443
MAX gradient                       ...    0.0001798310

-------
TIMINGS
-------

Total SCF gradient time            ...        0.681 sec

One electron gradient       ....       0.003 sec  (  0.4%)
Prescreening matrices       ....       0.020 sec  (  3.0%)
Two electron gradient       ....       0.072 sec  ( 10.5%)
XC gradient                 ....       0.434 sec  ( 63.7%)
------------------------------------------------------------------------------
                         ORCA GEOMETRY RELAXATION STEP
------------------------------------------------------------------------------

Reading the OPT-File                    .... done
Getting information on internals        .... done
Copying old internal coords+grads       .... done
Making the new internal coordinates     .... (new redundants).... done
Validating the new internal coordinates .... (new redundants).... done
Calculating the B-matrix                .... done
Calculating the G,G- and P matrices     .... done
Transforming gradient to internals      .... done
Projecting the internal gradient        .... done
Number of atoms                         ....   3
Number of internal coordinates          ....   3
Current Energy                          ....   -76.422993509 Eh
Current gradient norm                   ....     0.000320833 Eh/bohr
Maximum allowed component of the step   ....  0.300
Current trust radius                    ....  0.300
Updating the Hessian (BFGS)             .... done
Forming the augmented Hessian           .... done
Diagonalizing the augmented Hessian     .... done
Last element of RFO vector              ....  0.999999880
Lowest eigenvalues of augmented Hessian:
 -0.000000125  0.167112168  0.516316814
Length of the computed step             ....  0.000489566
The final length of the internal step   ....  0.000489566
Converting the step to cartesian space:
 Initial RMS(Int)=    0.0002826512
Transforming coordinates:
 Iter   0:  RMS(Cart)=    0.0001490528 RMS(Int)=    0.0002826511
 Iter   1:  RMS(Cart)=    0.0000000030 RMS(Int)=    0.0000000056
done
Storing new coordinates                 .... done

                                .--------------------.
          ----------------------|Geometry convergence|-------------------------
          Item                value                   Tolerance       Converged
          ---------------------------------------------------------------------
          Energy change      -0.0000934834            0.0000010000      NO
          RMS gradient        0.0001478789            0.0000300000      NO
          MAX gradient        0.0001798213            0.0001000000      NO
          RMS step            0.0002826512            0.0006000000      YES
          MAX step            0.0003445150            0.0010000000      YES
          ........................................................
          Max(Bonds)      0.0002      Max(Angles)    0.00
          Max(Dihed)        0.00      Max(Improp)    0.00
          ---------------------------------------------------------------------

The optimization has not yet converged - more geometry cycles are needed


    ---------------------------------------------------------------------------
                         Redundant Internal Coordinates
                            (Angstroem and degrees)

        Definition                    Value    dE/dq     Step     New-Value
    ----------------------------------------------------------------------------
     1. B(H   1,O   0)                0.9612 -0.000180  0.0002    0.9614   
     2. B(H   2,O   0)                0.9612 -0.000180  0.0002    0.9614   
     3. A(H   1,O   0,H   2)          103.82 -0.000032    0.00    103.82   
    ----------------------------------------------------------------------------

         *************************************************************
         *                GEOMETRY OPTIMIZATION CYCLE   3            *
         *************************************************************
---------------------------------
CARTESIAN COORDINATES (ANGSTROEM)
---------------------------------
  O      0.002360    0.000000   -0.002998
  H      0.963733    0.000000   -0.001354
  H     -0.225672    0.000000   -0.936938

----------------------------
CARTESIAN COORDINATES (A.U.)
----------------------------
  NO LB      ZA    FRAG     MASS         X           Y           Z
   0 O     8.0000    0    15.999    0.004459    0.000000   -0.005666
   1 H     1.0000    0     1.008    1.821191    0.000000   -0.002558
   2 H     1.0000    0     1.008   -0.426459    0.000000   -1.770556

--------------------------------
INTERNAL COORDINATES (ANGSTROEM)
--------------------------------
 O      0   0   0     0.000000000000     0.00000000     0.00000000
 H      1   0   0     0.961374206935     0.00000000     0.00000000
 H      1   2   0     0.961374796102   103.81898872     0.00000000

---------------------------
INTERNAL COORDINATES (A.U.)
---------------------------
 O      0   0   0     0.000000000000     0.00000000     0.00000000
 H      1   0   0     1.816733963323     0.00000000     0.00000000
 H      1   2   0     1.816735076686   103.81898872     0.00000000


Diagonalization of the overlap matrix:
Smallest eigenvalue                        ... 3.206e-02
Time for diagonalization                   ...    0.001 sec
Threshold for overlap eigenvalues          ... 1.000e-08
Number of eigenvalues below threshold      ... 0
Time for construction of square roots      ...    0.000 sec
Total time needed                          ...    0.001 sec

-------------------
DFT GRID GENERATION
-------------------

General Integration Accuracy     IntAcc      ...  7.000
Radial Grid Type                 RadialGrid  ... Gauss-Chebyshev
Angular Grid (max. acc.)         AngularGrid ... Lebedev-434
Angular grid pruning method      GridPruning ... 3 (G Style)
Weight generation scheme         WeightScheme... Becke
Basis function cutoff            BFCut       ...    1.0000e-12
Integration weight cutoff        WCut        ...    1.0000e-14
Grids for H and He will be reduced by one unit

# of grid points (after initial pruning)     ...  41434 (   0.0 sec)
# of grid points (after weights+screening)   ...  41041 (   0.0 sec)
nearest neighbour list constructed           ...    0.0 sec
Grid point re-assignment to atoms done       ...    0.0 sec
Grid point division into batches done        ...    0.6 sec
Reduced shell lists constructed in    0.7 sec

Total number of grid points                  ...    41041
Total number of batches                      ...      643
Average number of points per batch           ...       63
Average number of grid points per atom       ...    13680
Average number of shells per batch           ...    11.50 (82.17%)
Average number of basis functions per batch  ...    29.37 (81.59%)
Average number of large shells per batch     ...    10.74 (93.36%)
Average number of large basis fcns per batch ...    27.60 (93.95%)
Maximum spatial batch extension              ...  16.12, 19.67, 15.43 au
Average spatial batch extension              ...   2.31,  2.57,  2.30 au

Time for grid setup =    0.724 sec

--------------
SCF ITERATIONS
--------------
ITER       Energy         Delta-E        Max-DP      RMS-DP      [F,P]     Damp
               ***  Starting incremental Fock matrix formation  ***
                      *** Initiating the SOSCF procedure ***
                      *** Re-Reading the Fockian *** 
                      *** Removing any level shift *** 
ITER      Energy       Delta-E        Grad      Rot      Max-DP    RMS-DP
  0    -76.42299355 -76.4229935508  0.000068  0.000068  0.000093  0.000006
               *** Restarting incremental Fock matrix formation ***
  1    -76.42299357  -0.0000000168  0.000026  0.000022  0.000064  0.000003
  2    -76.42299357   0.0000000005  0.000029  0.000015  0.000030  0.000002
  3    -76.42299357  -0.0000000032  0.000001  0.000001  0.000001  0.000000
  4    -76.42299357  -0.0000000000  0.000001  0.000000  0.000000  0.000000
                 **** Energy Check signals convergence ****
              ***Rediagonalizing the Fockian in SOSCF/NRSCF***

               *****************************************************
               *                     SUCCESS                       *
               *           SCF CONVERGED AFTER   5 CYCLES          *
               *****************************************************

Total Energy       :          -76.42299357 Eh           -2079.57538 eV
  Last Energy change         ...   -1.0942e-12  Tolerance :   1.0000e-09
  Last MAX-Density change    ...    2.0498e-08  Tolerance :   1.0000e-08
             **** THE GBW FILE WAS UPDATED (input.gbw) ****
             **** DENSITY FILE WAS UPDATED (input.scfp) ****
             **** ENERGY FILE WAS UPDATED (input.en.tmp) ****
             **** THE GBW FILE WAS UPDATED (input.gbw) ****
             **** DENSITY FILE WAS UPDATED (input.scfp) ****
Total SCF time: 0 days 0 hours 0 min 2 sec 

-------------------------   --------------------
FINAL SINGLE POINT ENERGY       -76.422993570323
-------------------------   --------------------

------------------------------------------------------------------------------
                         ORCA SCF GRADIENT CALCULATION
------------------------------------------------------------------------------

Gradient of the Kohn-Sham DFT energy:
Kohn-Sham wavefunction type      ... RKS
Hartree-Fock exchange scaling    ...    0.200
Number of operators              ...    1
Number of atoms                  ...    3
Basis set dimensions             ...   36
Integral neglect threshold       ... 1.0e-12
Integral primitive cutoff        ... 1.0e-14

Nuclear repulsion gradient       ... done
One Electron Gradient            ... done
Pre-screening matrix             ... done
Starting the two electron gradient:
Two electron gradient done
Exchange-correlation gradient    ... done

------------------
CARTESIAN GRADIENT
------------------

   1   O   :   -0.000003735   -0.000000000    0.000004653
   2   H   :    0.000004358    0.000000000   -0.000000248
   3   H   :   -0.000000623   -0.000000000   -0.000004405

Difference to translation invariance:
           :    0.0000000000    0.0000000000    0.0000000000

Norm of the cartesian gradient     ...    0.0000086282
RMS gradient                       ...    0.0000028761
MAX gradient                       ...    0.0000046533

-------
TIMINGS
-------

Total SCF gradient time            ...        0.696 sec

One electron gradient       ....       0.003 sec  (  0.4%)
Prescreening matrices       ....       0.021 sec  (  3.0%)
Two electron gradient       ....       0.072 sec  ( 10.3%)
XC gradient                 ....       0.446 sec  ( 64.0%)
------------------------------------------------------------------------------
                         ORCA GEOMETRY RELAXATION STEP
------------------------------------------------------------------------------

Reading the OPT-File                    .... done
Getting information on internals        .... done
Copying old internal coords+grads       .... done
Making the new internal coordinates     .... (new redundants).... done
Validating the new internal coordinates .... (new redundants).... done
Calculating the B-matrix                .... done
Calculating the G,G- and P matrices     .... done
Transforming gradient to internals      .... done
Projecting the internal gradient        .... done
Number of atoms                         ....   3
Number of internal coordinates          ....   3
Current Energy                          ....   -76.422993570 Eh
Current gradient norm                   ....     0.000008628 Eh/bohr
Maximum allowed component of the step   ....  0.300
Current trust radius                    ....  0.300
Updating the Hessian (BFGS)             .... done
Forming the augmented Hessian           .... done
Diagonalizing the augmented Hessian     .... done
Last element of RFO vector              ....  1.000000000
Lowest eigenvalues of augmented Hessian:
 -0.000000000  0.167159620  0.516316811
Length of the computed step             ....  0.000014131
The final length of the internal step   ....  0.000014131
Converting the step to cartesian space:
 Initial RMS(Int)=    0.0000081587
Transforming coordinates:
 Iter   0:  RMS(Cart)=    0.0000031407 RMS(Int)=    0.0000081587
 Iter   1:  RMS(Cart)=    0.0000000000 RMS(Int)=    0.0000000000
done
Storing new coordinates                 .... done

                                .--------------------.
          ----------------------|Geometry convergence|-------------------------
          Item                value                   Tolerance       Converged
          ---------------------------------------------------------------------
          Energy change      -0.0000000612            0.0000010000      YES
          RMS gradient        0.0000036048            0.0000300000      YES
          MAX gradient        0.0000043973            0.0001000000      YES
          RMS step            0.0000081587            0.0006000000      YES
          MAX step            0.0000087217            0.0010000000      YES
          ........................................................
          Max(Bonds)      0.0000      Max(Angles)    0.00
          Max(Dihed)        0.00      Max(Improp)    0.00
          ---------------------------------------------------------------------

                    ***********************HURRAY********************
                    ***        THE OPTIMIZATION HAS CONVERGED     ***
                    *************************************************


    ---------------------------------------------------------------------------
                         Redundant Internal Coordinates

                          --- Optimized Parameters ---  
                            (Angstroem and degrees)

        Definition                    OldVal   dE/dq     Step     FinalVal
    ----------------------------------------------------------------------------
     1. B(H   1,O   0)                0.9614  0.000004 -0.0000    0.9614   
     2. B(H   2,O   0)                0.9614  0.000004 -0.0000    0.9614   
     3. A(H   1,O   0,H   2)          103.82 -0.000001    0.00    103.82   
    ----------------------------------------------------------------------------
                 *******************************************************
                 *** FINAL ENERGY EVALUATION AT THE STATIONARY POINT ***
                 ***               (AFTER    3 CYCLES)               ***
                 *******************************************************
---------------------------------
CARTESIAN COORDINATES (ANGSTROEM)
---------------------------------
  O      0.002362    0.000000   -0.003001
  H      0.963730    0.000000   -0.001353
  H     -0.225672    0.000000   -0.936935

----------------------------
CARTESIAN COORDINATES (A.U.)
----------------------------
  NO LB      ZA    FRAG     MASS         X           Y           Z
   0 O     8.0000    0    15.999    0.004464    0.000000   -0.005672
   1 H     1.0000    0     1.008    1.821186    0.000000   -0.002557
   2 H     1.0000    0     1.008   -0.426459    0.000000   -1.770551

--------------------------------
INTERNAL COORDINATES (ANGSTROEM)
--------------------------------
 O      0   0   0     0.000000000000     0.00000000     0.00000000
 H      1   0   0     0.961369591601     0.00000000     0.00000000
 H      1   2   0     0.961370190757   103.81938520     0.00000000

---------------------------
INTERNAL COORDINATES (A.U.)
---------------------------
 O      0   0   0     0.000000000000     0.00000000     0.00000000
 H      1   0   0     1.816725241606     0.00000000     0.00000000
 H      1   2   0     1.816726373846   103.81938520     0.00000000

---------------------
BASIS SET INFORMATION
---------------------
There are 2 groups of distinct atoms

 Group   1 Type O   : 10s4p2d1f contracted to 3s2p2d1f pattern {631/31/11/1}
 Group   2 Type H   : 4s1p contracted to 2s1p pattern {31/1}

Atom   0O    basis set group =>   1
Atom   1H    basis set group =>   2
Atom   2H    basis set group =>   2
------------------------------------------------------------------------------
                           ORCA GTO INTEGRAL CALCULATION
------------------------------------------------------------------------------

                         BASIS SET STATISTICS AND STARTUP INFO

 # of primitive gaussian shells          ...   27
 # of primitive gaussian functions       ...   53
 # of contracted shells                  ...   14
 # of contracted basis functions         ...   36
 Highest angular momentum                ...    3
 Maximum contraction depth               ...    6
 Integral package used                   ... LIBINT
 Integral threshhold            Thresh   ...  1.000e-12
 Primitive cut-off              TCut     ...  1.000e-14


------------------------------ INTEGRAL EVALUATION ----------------------------


 * One electron integrals 
 Pre-screening matrix                    ... done
 Shell pair data                         ... done (   0.000 sec)

-------------------------------------------------------------------------------
                                 ORCA SCF
-------------------------------------------------------------------------------

------------
SCF SETTINGS
------------
Hamiltonian:
 Density Functional     Method          .... DFT(GTOs)
 Exchange Functional    Exchange        .... B88
   X-Alpha parameter    XAlpha          ....  0.666667
   Becke's b parameter  XBeta           ....  0.004200
 Correlation Functional Correlation     .... LYP
 LDA part of GGA corr.  LDAOpt          .... VWN-3
 Gradients option       PostSCFGGA      .... off
 Hybrid DFT is turned on
   Fraction HF Exchange ScalHFX         ....  0.200000
   Scaling of DF-GGA-X  ScalDFX         ....  0.720000
   Scaling of DF-GGA-C  ScalDFC         ....  0.810000
   Scaling of DF-LDA-C  ScalLDAC        ....  1.000000
   Perturbative correction              ....  0.000000
   Density functional embedding theory  .... OFF
   NL short-range parameter             ....  4.800000


General Settings:
 Integral files         IntName         .... input
 Hartree-Fock type      HFTyp           .... RHF
 Total Charge           Charge          ....    0
 Multiplicity           Mult            ....    1
 Number of Electrons    NEL             ....   10
 Basis Dimension        Dim             ....   36
 Nuclear Repulsion      ENuc            ....      9.1567434915 Eh

Convergence Acceleration:
 DIIS                   CNVDIIS         .... on
   Start iteration      DIISMaxIt       ....    12
   Startup error        DIISStart       ....  0.200000
   # of expansion vecs  DIISMaxEq       ....     5
   Bias factor          DIISBfac        ....   1.050
   Max. coefficient     DIISMaxC        ....  10.000
 Newton-Raphson         CNVNR           .... off
 SOSCF                  CNVSOSCF        .... on
   Start iteration      SOSCFMaxIt      ....   150
   Startup grad/error   SOSCFStart      ....  0.003300
 Level Shifting         CNVShift        .... on
   Level shift para.    LevelShift      ....    0.2500
   Turn off err/grad.   ShiftErr        ....    0.0010
 Zerner damping         CNVZerner       .... off
 Static damping         CNVDamp         .... on
   Fraction old density DampFac         ....    0.7000
   Max. Damping (<1)    DampMax         ....    0.9800
   Min. Damping (>=0)   DampMin         ....    0.0000
   Turn off err/grad.   DampErr         ....    0.1000
 Fernandez-Rico         CNVRico         .... off

SCF Procedure:
 Maximum # iterations   MaxIter         ....   500
 SCF integral mode      SCFMode         .... Direct
   Integral package                     .... LIBINT
 Reset frequency        DirectResetFreq ....    20
 Integral Threshold     Thresh          ....  1.000e-12 Eh
 Primitive CutOff       TCut            ....  1.000e-14 Eh

Convergence Tolerance:
 Convergence Check Mode ConvCheckMode   .... Total+1el-Energy
 Convergence forced     ConvForced      .... 0
 Energy Change          TolE            ....  1.000e-09 Eh
 1-El. energy change                    ....  1.000e-06 Eh
 Orbital Gradient       TolG            ....  2.000e-06
 Orbital Rotation angle TolX            ....  2.000e-06
 DIIS Error             TolErr          ....  1.000e-08


Diagonalization of the overlap matrix:
Smallest eigenvalue                        ... 3.206e-02
Time for diagonalization                   ...    0.001 sec
Threshold for overlap eigenvalues          ... 1.000e-08
Number of eigenvalues below threshold      ... 0
Time for construction of square roots      ...    0.000 sec
Total time needed                          ...    0.001 sec

---------------------
INITIAL GUESS: MOREAD
---------------------
Guess MOs are being read from file: input.gbw
Input Geometry matches current geometry (good)
Input basis set matches current basis set (good)
MOs were renormalized
MOs were reorthogonalized (Cholesky)
                      ------------------
                      INITIAL GUESS DONE (   0.0 sec)
                      ------------------
-------------------
DFT GRID GENERATION
-------------------

General Integration Accuracy     IntAcc      ...  7.000
Radial Grid Type                 RadialGrid  ... Gauss-Chebyshev
Angular Grid (max. acc.)         AngularGrid ... Lebedev-434
Angular grid pruning method      GridPruning ... 3 (G Style)
Weight generation scheme         WeightScheme... Becke
Basis function cutoff            BFCut       ...    1.0000e-12
Integration weight cutoff        WCut        ...    1.0000e-14
Grids for H and He will be reduced by one unit

# of grid points (after initial pruning)     ...  41434 (   0.0 sec)
# of grid points (after weights+screening)   ...  41041 (   0.0 sec)
nearest neighbour list constructed           ...    0.0 sec
Grid point re-assignment to atoms done       ...    0.0 sec
Grid point division into batches done        ...    0.6 sec
Reduced shell lists constructed in    0.7 sec

Total number of grid points                  ...    41041
Total number of batches                      ...      643
[...]
Virial Ratio       :            2.00117388


---------------
SCF CONVERGENCE
---------------

  Last Energy change         ...   -2.0282e-08  Tolerance :   1.0000e-09
  Last MAX-Density change    ...    4.3664e-08  Tolerance :   1.0000e-08
  Last RMS-Density change    ...    1.3378e-09  Tolerance :   1.0000e-09
  Last DIIS Error            ...    1.3875e-08  Tolerance :   1.0000e-08

             **** THE GBW FILE WAS UPDATED (input.gbw) ****
             **** DENSITY FILE WAS UPDATED (input.scfp) ****
             **** ENERGY FILE WAS UPDATED (input.en.tmp) ****
----------------------
UHF SPIN CONTAMINATION
----------------------

Expectation value of <S**2>     :     0.758097
Ideal value S*(S+1) for S=0.5   :     0.750000
Deviation                       :     0.008097

             **** THE GBW FILE WAS UPDATED (input.gbw) ****
             **** DENSITY FILE WAS UPDATED (input.scfp) ****
----------------
ORBITAL ENERGIES
----------------
                 SPIN UP ORBITALS
  NO   OCC          E(Eh)            E(eV) 
   0   1.0000     -21.121201      -574.7371 
   1   1.0000      -1.876938       -51.0741 
   2   1.0000      -1.190300       -32.3897 
   3   1.0000      -1.118937       -30.4478 
   4   1.0000      -1.069698       -29.1080 
   5   0.0000      -0.173048        -4.7089 
   6   0.0000      -0.102210        -2.7813 
   7   0.0000      -0.072662        -1.9772 
   8   0.0000      -0.063150        -1.7184 
   9   0.0000      -0.014874        -0.4047 
  10   0.0000       0.010484         0.2853 
  11   0.0000       0.254488         6.9250 
  12   0.0000       0.263010         7.1569 
  13   0.0000       0.310458         8.4480 
  14   0.0000       0.324640         8.8339 
  15   0.0000       0.369522        10.0552 
  16   0.0000       0.460234        12.5236 
  17   0.0000       0.472634        12.8610 
  18   0.0000       0.581571        15.8254 
  19   0.0000       0.597210        16.2509 
  20   0.0000       0.801073        21.7983 
  21   0.0000       0.988847        26.9079 
  22   0.0000       1.085401        29.5353 
  23   0.0000       1.108310        30.1586 
  24   0.0000       1.156138        31.4601 
  25   0.0000       1.205637        32.8071 
  26   0.0000       1.208253        32.8782 
  27   0.0000       1.351117        36.7658 
  28   0.0000       1.453228        39.5443 
  29   0.0000       1.566583        42.6289 
  30   0.0000       2.277543        61.9751 
  31   0.0000       2.657311        72.3091 
  32   0.0000       2.699425        73.4551 
  33   0.0000       2.748559        74.7921 
  34   0.0000       2.794648        76.0462 
  35   0.0000       2.811066        76.4930 
  36   0.0000       2.949584        80.2623 
  37   0.0000       3.042519        82.7912 
  38   0.0000       3.111044        84.6558 
  39   0.0000       3.259051        88.6833 
  40   0.0000       3.295604        89.6779 
  41   0.0000       3.320393        90.3525 
  42   0.0000       3.400210        92.5244 
  43   0.0000       3.490319        94.9764 
  44   0.0000       3.591172        97.7208 
  45   0.0000       3.667697        99.8031 
  46   0.0000       3.672395        99.9310 
  47   0.0000       3.703545       100.7786 
  48   0.0000       3.704452       100.8033 
  49   0.0000       3.871297       105.3433 
  50   0.0000       3.890024       105.8529 
  51   0.0000       4.023165       109.4759 
  52   0.0000       4.035086       109.8003 
  53   0.0000       4.077589       110.9568 
  54   0.0000       4.749006       129.2270 
  55   0.0000       4.767190       129.7218 
  56   0.0000       5.014067       136.4397 
  57   0.0000       5.179003       140.9278 
  58   0.0000       5.199194       141.4772 
  59   0.0000       5.247489       142.7914 
  60   0.0000       5.980061       162.7257 
  61   0.0000       6.207405       168.9121 
  62   0.0000       8.417153       229.0424 
  63   0.0000       8.582448       233.5403 
  64   0.0000       8.894072       242.0200 
  65   0.0000       8.921928       242.7780 
  66   0.0000       9.159485       249.2423 
  67   0.0000       9.445813       257.0336 
  68   0.0000       9.496765       258.4201 
  69   0.0000       9.601783       261.2778 
  70   0.0000       9.757850       265.5246 
  71   0.0000      10.004580       272.2385 
  72   0.0000      10.268854       279.4297 
  73   0.0000      10.329665       281.0845 
  74   0.0000      10.502757       285.7945 
  75   0.0000      10.708232       291.3858 
  76   0.0000      11.073686       301.3303 
  77   0.0000      11.145053       303.2723 
  78   0.0000      11.305622       307.6416 
  79   0.0000      11.359552       309.1091 
  80   0.0000      11.632621       316.5397 
  81   0.0000      11.886915       323.4594 
  82   0.0000      11.992407       326.3300 
  83   0.0000      12.182501       331.5027 
  84   0.0000      12.321119       335.2747 
  85   0.0000      12.349644       336.0509 
  86   0.0000      13.509230       367.6048 
  87   0.0000      14.083334       383.2270 
  88   0.0000      41.814595      1137.8330 

                 SPIN DOWN ORBITALS
  NO   OCC          E(Eh)            E(eV) 
   0   1.0000     -21.077160      -573.5387 
   1   1.0000      -1.714951       -46.6662 
   2   1.0000      -1.153132       -31.3783 
   3   1.0000      -1.019450       -27.7406 
   4   0.0000      -0.313236        -8.5236 
   5   0.0000      -0.162085        -4.4106 
   6   0.0000      -0.096769        -2.6332 
   7   0.0000      -0.061249        -1.6667 
   8   0.0000      -0.043234        -1.1765 
   9   0.0000      -0.014463        -0.3936 
  10   0.0000       0.015909         0.4329 
  11   0.0000       0.261634         7.1194 
  12   0.0000       0.264806         7.2057 
  13   0.0000       0.321623         8.7518 
  14   0.0000       0.335089         9.1182 
  15   0.0000       0.470484        12.8025 
  16   0.0000       0.476397        12.9634 
  17   0.0000       0.482245        13.1226 
  18   0.0000       0.605553        16.4779 
  19   0.0000       0.622701        16.9446 
  20   0.0000       0.798614        21.7314 
  21   0.0000       1.019992        27.7554 
  22   0.0000       1.088270        29.6133 
  23   0.0000       1.143274        31.1101 
  24   0.0000       1.194987        32.5173 
  25   0.0000       1.211985        32.9798 
  26   0.0000       1.214695        33.0535 
  27   0.0000       1.367428        37.2096 
  28   0.0000       1.466003        39.8920 
  29   0.0000       1.575374        42.8681 
  30   0.0000       2.418770        65.8181 
  31   0.0000       2.675257        72.7975 
  32   0.0000       2.712458        73.8097 
  33   0.0000       2.780542        75.6624 
  34   0.0000       2.821517        76.7774 
  35   0.0000       2.842510        77.3486 
  36   0.0000       2.992952        81.4424 
  37   0.0000       3.042085        82.7793 
  38   0.0000       3.116913        84.8155 
  39   0.0000       3.276114        89.1476 
  40   0.0000       3.297237        89.7224 
  41   0.0000       3.351659        91.2033 
  42   0.0000       3.432953        93.4154 
  43   0.0000       3.497493        95.1716 
  44   0.0000       3.632454        98.8441 
  45   0.0000       3.681438       100.1770 
  46   0.0000       3.692547       100.4793 
  47   0.0000       3.717456       101.1571 
  48   0.0000       3.769404       102.5707 
  49   0.0000       3.906854       106.3109 
  50   0.0000       3.950671       107.5032 
  51   0.0000       4.036894       109.8495 
  52   0.0000       4.037770       109.8733 
  53   0.0000       4.088508       111.2540 
  54   0.0000       4.755177       129.3949 
  55   0.0000       4.775047       129.9356 
  56   0.0000       5.033866       136.9785 
  57   0.0000       5.206125       141.6659 
  58   0.0000       5.209081       141.7463 
  59   0.0000       5.247537       142.7927 
  60   0.0000       5.990321       163.0049 
  61   0.0000       6.232450       169.5936 
  62   0.0000       8.423884       229.2255 
  63   0.0000       8.585959       233.6358 
  64   0.0000       8.930701       243.0167 
  65   0.0000       8.959517       243.8008 
  66   0.0000       9.183563       249.8974 
  67   0.0000       9.477744       257.9025 
  68   0.0000       9.522799       259.1285 
  69   0.0000       9.641154       262.3492 
  70   0.0000       9.820010       267.2161 
  71   0.0000      10.084888       274.4237 
  72   0.0000      10.278490       279.6919 
  73   0.0000      10.357443       281.8404 
  74   0.0000      10.534765       286.6655 
  75   0.0000      10.761349       292.8312 
  76   0.0000      11.127923       302.8062 
  77   0.0000      11.196645       304.6762 
  78   0.0000      11.363703       309.2221 
  79   0.0000      11.403793       310.3130 
  80   0.0000      11.652870       317.0907 
  81   0.0000      11.910132       324.0912 
  82   0.0000      12.008794       326.7759 
  83   0.0000      12.256356       333.5124 
  84   0.0000      12.387861       337.0908 
  85   0.0000      12.395412       337.2963 
  86   0.0000      13.553366       368.8058 
  87   0.0000      14.099117       383.6565 
  88   0.0000      41.842190      1138.5839 

                    ********************************
                    * MULLIKEN POPULATION ANALYSIS *
                    ********************************

--------------------------------------------
MULLIKEN ATOMIC CHARGES AND SPIN POPULATIONS
--------------------------------------------
   0 O :    0.171568    1.090037
   1 H :    0.414215   -0.045019
   2 H :    0.414216   -0.045019
Sum of atomic charges         :    1.0000000
Sum of atomic spin populations:    1.0000000

-----------------------------------------------------
MULLIKEN REDUCED ORBITAL CHARGES AND SPIN POPULATIONS
-----------------------------------------------------
CHARGE
  0 O s       :     3.796491  s :     3.796491
      pz      :     0.981911  p :     4.009693
      px      :     1.364812
      py      :     1.662970
      dz2     :     0.005771  d :     0.021441
      dxz     :     0.000000
      dyz     :     0.001263
      dx2y2   :     0.000296
      dxy     :     0.014110
      f0      :    -0.000012  f :     0.000709
      f+1     :     0.000197
      f-1     :     0.000143
      f+2     :     0.000017
      f-2     :     0.000000
      f+3     :    -0.000076
      f-3     :     0.000441
      g0      :     0.000008  g :     0.000098
      g+1     :    -0.000000
      g-1     :     0.000001
      g+2     :     0.000000
      g-2     :     0.000008
      g+3     :     0.000000
      g-3     :     0.000004
      g+4     :     0.000040
      g-4     :     0.000036
  1 H s       :     0.519924  s :     0.519924
      pz      :     0.007379  p :     0.059529
      px      :     0.030965
      py      :     0.021185
      dz2     :     0.000867  d :     0.006332
      dxz     :     0.000701
      dyz     :     0.000329
      dx2y2   :     0.001875
      dxy     :     0.002561
  2 H s       :     0.519923  s :     0.519923
      pz      :     0.007379  p :     0.059529
      px      :     0.030965
      py      :     0.021185
      dz2     :     0.000867  d :     0.006332
      dxz     :     0.000701
      dyz     :     0.000329
      dx2y2   :     0.001875
      dxy     :     0.002561

SPIN
  0 O s       :     0.046411  s :     0.046411
      pz      :     0.981911  p :     1.044876
      px      :     0.044580
      py      :     0.018385
      dz2     :    -0.001823  d :    -0.000468
      dxz     :     0.000000
      dyz     :     0.001263
      dx2y2   :     0.000092
      dxy     :     0.000000
      f0      :    -0.000012  f :    -0.000773
      f+1     :    -0.000516
      f-1     :    -0.000301
      f+2     :     0.000017
      f-2     :     0.000000
      f+3     :     0.000008
      f-3     :     0.000032
      g0      :    -0.000005  g :    -0.000009
      g+1     :    -0.000000
      g-1     :     0.000001
      g+2     :     0.000000
      g-2     :    -0.000008
      g+3     :     0.000000
      g-3     :     0.000004
      g+4     :     0.000001
      g-4     :    -0.000001
  1 H s       :    -0.050082  s :    -0.050082
      pz      :     0.007379  p :     0.004053
      px      :    -0.001740
      py      :    -0.001586
      dz2     :    -0.000095  d :     0.001011
      dxz     :     0.000701
      dyz     :     0.000329
      dx2y2   :    -0.000005
      dxy     :     0.000081
  2 H s       :    -0.050082  s :    -0.050082
      pz      :     0.007379  p :     0.004053
      px      :    -0.001740
      py      :    -0.001586
      dz2     :    -0.000095  d :     0.001011
      dxz     :     0.000701
      dyz     :     0.000329
      dx2y2   :    -0.000005
      dxy     :     0.000081


                     *******************************
                     * LOEWDIN POPULATION ANALYSIS *
                     *******************************

-------------------------------------------
LOEWDIN ATOMIC CHARGES AND SPIN POPULATIONS
-------------------------------------------
   0 O :    0.871282    0.941399
   1 H :    0.064359    0.029300
   2 H :    0.064360    0.029300

----------------------------------------------------
LOEWDIN REDUCED ORBITAL CHARGES AND SPIN POPULATIONS
----------------------------------------------------
CHARGE
  0 O s       :     3.282863  s :     3.282863
      pz      :     0.893996  p :     3.804006
      px      :     1.307666
      py      :     1.602344
      dz2     :     0.007891  d :     0.036824
      dxz     :     0.000000
      dyz     :     0.000112
      dx2y2   :     0.002916
      dxy     :     0.025906
      f0      :     0.000843  f :     0.004803
      f+1     :     0.000590
      f-1     :     0.000250
      f+2     :     0.000073
      f-2     :     0.000000
      f+3     :     0.001012
      f-3     :     0.002036
      g0      :     0.000008  g :     0.000221
      g+1     :     0.000000
      g-1     :     0.000038
      g+2     :     0.000039
      g-2     :     0.000037
      g+3     :     0.000000
      g-3     :     0.000075
      g+4     :     0.000021
      g-4     :     0.000003
  1 H s       :     0.590507  s :     0.590507
      pz      :     0.035201  p :     0.267095
      px      :     0.121049
      py      :     0.110846
      dz2     :     0.008290  d :     0.078040
      dxz     :     0.011773
      dyz     :     0.005457
      dx2y2   :     0.024030
      dxy     :     0.028489
  2 H s       :     0.590506  s :     0.590506
      pz      :     0.035201  p :     0.267094
      px      :     0.121049
      py      :     0.110845
      dz2     :     0.008290  d :     0.078040
      dxz     :     0.011773
      dyz     :     0.005457
      dx2y2   :     0.024030
      dxy     :     0.028489

SPIN
  0 O s       :     0.018048  s :     0.018048
      pz      :     0.893996  p :     0.926608
      px      :     0.024081
      py      :     0.008531
      dz2     :    -0.000793  d :    -0.003525
      dxz     :     0.000000
      dyz     :     0.000112
      dx2y2   :    -0.000298
      dxy     :    -0.002546
      f0      :     0.000843  f :     0.000166
      f+1     :    -0.000372
      f-1     :    -0.000100
      f+2     :     0.000073
      f-2     :     0.000000
      f+3     :    -0.000050
      f-3     :    -0.000227
      g0      :    -0.000004  g :     0.000102
      g+1     :     0.000000
      g-1     :     0.000038
      g+2     :     0.000001
      g-2     :    -0.000012
      g+3     :     0.000000
      g-3     :     0.000075
      g+4     :     0.000002
      g-4     :     0.000002
  1 H s       :    -0.031275  s :    -0.031275
      pz      :     0.035201  p :     0.040517
      px      :     0.004722
      py      :     0.000594
      dz2     :     0.000113  d :     0.020058
      dxz     :     0.011773
      dyz     :     0.005457
      dx2y2   :     0.000679
      dxy     :     0.002036
  2 H s       :    -0.031275  s :    -0.031275
      pz      :     0.035201  p :     0.040517
      px      :     0.004722
      py      :     0.000594
      dz2     :     0.000113  d :     0.020058
      dxz     :     0.011773
      dyz     :     0.005457
      dx2y2   :     0.000679
      dxy     :     0.002036


                      *****************************
                      * MAYER POPULATION ANALYSIS *
                      *****************************

  NA   - Mulliken gross atomic population
  ZA   - Total nuclear charge
  QA   - Mulliken gross atomic charge
  VA   - Mayer's total valence
  BVA  - Mayer's bonded valence
  FA   - Mayer's free valence

  ATOM       NA         ZA         QA         VA         BVA        FA
  0 O      7.8284     8.0000     0.1716     2.6545     1.6755     0.9791
  1 H      0.5858     1.0000     0.4142     0.8518     0.8491     0.0027
  2 H      0.5858     1.0000     0.4142     0.8518     0.8491     0.0027

  Mayer bond orders larger than 0.100000
B(  0-O ,  1-H ) :   0.8377 B(  0-O ,  2-H ) :   0.8377 

-------
TIMINGS
-------

Total SCF time: 0 days 0 hours 0 min 9 sec 

Total time                  ....       9.005 sec
Sum of individual times     ....       8.832 sec  ( 98.1%)

Fock matrix formation       ....       8.600 sec  ( 95.5%)
Diagonalization             ....       0.029 sec  (  0.3%)
Density matrix formation    ....       0.001 sec  (  0.0%)
Population analysis         ....       0.002 sec  (  0.0%)
Initial guess               ....       0.139 sec  (  1.5%)
Orbital Transformation      ....       0.000 sec  (  0.0%)
Orbital Orthonormalization  ....       0.000 sec  (  0.0%)
DIIS solution               ....       0.011 sec  (  0.1%)

-------------------------   --------------------
FINAL SINGLE POINT ENERGY       -75.662986699498
-------------------------   --------------------


                            ***************************************
                            *     ORCA property calculations      *
                            ***************************************

                                    ---------------------
                                    Active property flags
                                    ---------------------
   (+) Dipole Moment


------------------------------------------------------------------------------
                       ORCA ELECTRIC PROPERTIES CALCULATION
------------------------------------------------------------------------------

Dipole Moment Calculation                       ... on
Quadrupole Moment Calculation                   ... off
Polarizability Calculation                      ... off
GBWName                                         ... input.gbw
Electron density file                           ... input.scfp
The origin for moment calculation is the CENTER OF MASS  = (-0.000000, -0.000009  0.000000)

-------------
DIPOLE MOMENT
-------------
                                X             Y             Z
Electronic contribution:      0.00000       0.01050       0.00000
Nuclear contribution   :      0.00000       0.96155       0.00000
                        -----------------------------------------
Total Dipole Moment    :      0.00000       0.97206       0.00000
                        -----------------------------------------
Magnitude (a.u.)       :      0.97206
Magnitude (Debye)      :      2.47077



--------------------
Rotational spectrum 
--------------------
 
Rotational constants in cm-1:    28.221828    12.298643     8.565798 
Rotational constants in MHz : 846069.129533 368704.033636 256796.174176 

 Dipole components along the rotational axes: 
x,y,z [a.u.] :    -0.000002     0.972055     0.000000 
x,y,z [Debye]:    -0.000005     2.470769     0.000000 

 

Timings for individual modules:

Sum of individual times         ...        9.329 sec (=   0.155 min)
GTO integral calculation        ...        0.296 sec (=   0.005 min)   3.2 %
SCF iterations                  ...        9.033 sec (=   0.151 min)  96.8 %
                             ****ORCA TERMINATED NORMALLY****
TOTAL RUN TIME: 0 days 0 hours 0 minutes 9 seconds 535 msec
